
Running Job 1 of 4 w3_aa_wb97xv_qzvppd_eda_mbe.in
qchem w3_aa_wb97xv_qzvppd_eda_mbe.in_251887.0 /tmp/qchem251887/ 0
/global/common/software/nersc/pm-stable/sw/qchem/6.0.0/exe/qcprog.exe_s w3_aa_wb97xv_qzvppd_eda_mbe.in_251887.0 /tmp/qchem251887/
                  Welcome to Q-Chem
     A Quantum Leap Into The Future Of Chemistry


 Q-Chem 6.0, Q-Chem, Inc., Pleasanton, CA (2022)

 License issued to: National Energy Research Scientific Computing Center (site)

 E. Epifanovsky,  A. T. B. Gilbert,  Xintian Feng,  Joonho Lee,  Yuezhi Mao,  
 N. Mardirossian,  P. Pokhilko,  A. White,  M. Wormit,  M. P. Coons,  
 A. L. Dempwolff,  Zhengting Gan,  D. Hait,  P. R. Horn,  L. D. Jacobson,  
 I. Kaliman,  J. Kussmann,  A. W. Lange,  Ka Un Lao,  D. S. Levine,  Jie Liu,  
 S. C. McKenzie,  A. F. Morrison,  K. Nanda,  F. Plasser,  D. R. Rehn,  
 M. L. Vidal,  Zhi-Qiang You,  Ying Zhu,  B. Alam,  B. Albrecht,  
 A. Aldossary,  E. Alguire,  J. H. Andersen,  V. Athavale,  D. Barton,  
 K. Begam,  A. Behn,  N. Bellonzi,  Y. A. Bernard,  E. J. Berquist,  
 H. Burton,  A. Carreras,  K. Carter-Fenk,  Romit Chakraborty,  
 Chandrima Chakravarty,  Junhan Chen,  A. D. Chien,  K. D. Closser,  
 V. Cofer-Shabica,  L. Cunha,  S. Dasgupta,  Jia Deng,  M. de Wergifosse,  
 M. Diedenhofen,  Hainam Do,  S. Ehlert,  Po-Tung Fang,  S. Fatehi,  
 Qingguo Feng,  T. Friedhoff,  B. Ganoe,  J. Gayvert,  Qinghui Ge,  
 G. Gidofalvi,  M. Goldey,  J. Gomes,  C. Gonzalez-Espinoza,  S. Gulania,  
 A. Gunina,  J. A. Gyamfi,  M. W. D. Hanson-Heine,  P. H. P. Harbach,  
 A. W. Hauser,  M. F. Herbst,  M. Hernandez Vera,  M. Hodecker,  
 Z. C. Holden,  S. Houck,  Xunkun Huang,  Kerwin Hui,  B. C. Huynh,  
 K. Ikeda,  M. Ivanov,  Hyunjun Ji,  Zuxin Jin,  Hanjie Jiang,  B. Kaduk,  
 S. Kaehler,  R. Kang,  K. Khistyaev,  Jaehoon Kim,  Yongbin Kim,  
 P. Klunzinger,  Z. Koczor-Benda,  Joong Hoon Koh,  D. Kosenkov,  
 Saikiran Kotaru,  L. Koulias,  T. Kowalczyk,  C. M. Krauter,  K. Kue,  
 A. Kunitsa,  T. Kus,  A. Landau,  K. V. Lawler,  D. Lefrancois,  S. Lehtola,  
 Rain Li,  Shaozhi Li,  Yi-Pei Li,  Jiashu Liang,  M. Liebenthal,  
 Hung-Hsuan Lin,  You-Sheng Lin,  Fenglai Liu,  Kuan-Yu Liu,  
 M. Loipersberger,  A. Luenser,  C. Malbon,  A. Manjanath,  P. Manohar,  
 E. Mansoor,  S. F. Manzer,  Shan-Ping Mao,  A. V. Marenich,  T. Markovich,  
 S. Mason,  F. Matz,  S. A. Maurer,  P. F. McLaughlin,  M. F. S. J. Menger,  
 J.-M. Mewes,  S. A. Mewes,  P. Morgante,  Mohammad Mostafanejad,  
 J. W. Mullinax,  K. J. Oosterbaan,  G. Paran,  V. Parravicini,  
 Alexander C. Paul,  Suranjan K. Paul,  F. Pavosevic,  Zheng Pei,  S. Prager,  
 E. I. Proynov,  E. Ramos,  B. Rana,  A. E. Rask,  A. Rettig,  R. M. Richard,  
 F. Rob,  E. Rossomme,  T. Scheele,  M. Scheurer,  M. Schneider,  
 P. E. Schneider,  N. Sergueev,  S. M. Sharada,  Hengyuan Shen,  
 W. Skomorowski,  D. W. Small,  C. J. Stein,  Yingli Su,  Yu-Chuan Su,  
 E. J. Sundstrom,  Zhen Tao,  J. Thirman,  Hung-Yi Tsai,  T. Tsuchimochi,  
 N. M. Tubman,  C. Utku,  S. P. Veccham,  O. Vydrov,  J. Wenzel,  
 Jonathan Wong,  J. Witte,  A. Yamada,  Chou-Hsun Yang,  Kun Yao,  
 S. Yeganeh,  S. R. Yost,  A. Zech,  F. Zeller,  Igor Ying Zhang,  
 Xing Zhang,  Yu Zhang,  D. Zuev,  A. Aspuru-Guzik,  A. T. Bell,  
 N. A. Besley,  K. B. Bravaya,  B. R. Brooks,  D. Casanova,  Jeng-Da Chai,  
 Hsing-Ta Chen,  S. Coriani,  C. J. Cramer,  A. E. DePrince, III,  
 R. A. DiStasio Jr.,  A. Dreuw,  B. D. Dunietz,  T. R. Furlani,  
 W. A. Goddard III,  S. Grimme,  S. Hammes-Schiffer,  T. Head-Gordon,  
 W. J. Hehre,  Chao-Ping Hsu,  T.-C. Jagau,  Yousung Jung,  A. Klamt,  
 Jing Kong,  D. S. Lambrecht,  Xiangyuan Li,  WanZhen Liang,  N. J. Mayhall,  
 C. W. McCurdy,  J. B. Neaton,  T. Neudecker,  C. Ochsenfeld,  
 J. A. Parkhill,  R. Peverati,  V. A. Rassolov,  Haisheng Ren,  Yihan Shao,  
 L. V. Slipchenko,  R. P. Steele,  J. E. Subotnik,  A. J. W. Thom,  
 A. Tkatchenko,  D. G. Truhlar,  T. Van Voorhis,  Fan Wang,  
 T. A. Wesolowski,  K. B. Whaley,  H. L. Woodcock III,  P. M. Zimmerman,  
 S. Faraji,  P. M. W. Gill,  M. Head-Gordon,  J. M. Herbert,  A. I. Krylov

 Contributors to earlier versions of Q-Chem not listed above: 
 R. D. Adamson,  B. Austin,  R. Baer,  J. Baker,  G. J. O. Beran,  
 K. Brandhorst,  S. T. Brown,  E. F. C. Byrd,  Arup K. Chakraborty,  
 G. K. L. Chan,  Chun-Min Chang,  Yunqing Chen,  C.-L. Cheng,  
 Siu Hung Chien,  D. M. Chipman,  D. L. Crittenden,  H. Dachsel,  
 R. J. Doerksen,  A. D. Dutoi,  R. G. Edgar,  J. Fosso-Tande,  
 L. Fusti-Molnar,  D. Ghosh,  A. Ghysels,  A. Golubeva-Zadorozhnaya,  
 J. Gonthier,  M. S. Gordon,  S. R. Gwaltney,  G. Hawkins,  J. E. Herr,  
 A. Heyden,  S. Hirata,  E. G. Hohenstein,  G. Kedziora,  F. J. Keil,  
 C. Kelley,  Jihan Kim,  R. A. King,  R. Z. Khaliullin,  P. P. Korambath,  
 W. Kurlancheek,  A. Laurent,  A. M. Lee,  M. S. Lee,  S. V. Levchenko,  
 Ching Yeh Lin,  D. Liotard,  E. Livshits,  R. C. Lochan,  I. Lotan,  
 L. A. Martinez-Martinez,  P. E. Maslen,  N. Nair,  D. P. O'Neill,  
 D. Neuhauser,  E. Neuscamman,  C. M. Oana,  R. Olivares-Amaya,  R. Olson,  
 T. M. Perrine,  B. Peters,  P. A. Pieniazek,  A. Prociuk,  Y. M. Rhee,  
 J. Ritchie,  M. A. Rohrdanz,  E. Rosta,  N. J. Russ,  H. F. Schaefer III,  
 M. W. Schmidt,  N. E. Schultz,  S. Sharma,  N. Shenvi,  C. D. Sherrill,  
 A. C. Simmonett,  A. Sodt,  T. Stein,  D. Stuck,  K. S. Thanthiriwatte,  
 V. Vanovschi,  L. Vogt,  Tao Wang,  A. Warshel,  M. A. Watson,  
 C. F. Williams,  Q. Wu,  X. Xu,  Jun Yang,  W. Zhang,  Yan Zhao

   Please cite Q-Chem as follows:
  "Software for the frontiers of quantum chemistry:
   An overview of developments in the Q-Chem 5 package"
   J. Chem. Phys. 155, 084801 (2021)
   https://doi.org/10.1063/5.0055522 (open access)

 Q-Chem 6.0.0 for Intel X86 EM64T Linux

 Parts of Q-Chem use Armadillo 9.900.5 (Nocturnal Misbehaviour).
 http://arma.sourceforge.net/

 Q-Chem begins on Tue Jan  2 15:11:46 2024  

 Host: login27
0

     Scratch files written to /tmp/qchem251887//
 Jul222 |scratch|qcdevops|jenkins|workspace|build_RNUM 7470   
 Processing $rem in /global/common/software/nersc/pm-stable/sw/qchem/6.0.0/config/preferences:
 Processing $rem in /global/homes/h/heindelj/.qchemrc:

 Q-Chem warning in module libgen/rem_setup.C, line 3291:

 Neither GIA nor STOLL is specified by user. Use STOLL as the default


 Checking the input file for inconsistencies... 	...done.

--------------------------------------------------------------
User input:
--------------------------------------------------------------
$molecule
0 1
--
0 1
O 1.2948975333 -1.0824655356 -0.1226659383
H 1.1339298150 -0.1308894691 -0.0915801347
H 1.9124838417 -1.2673720503 0.5869372358
--
0 1
O 0.1733378377 1.6306190187 -0.2566846622
H 0.2108295927 2.1057801602 -1.0902909804
H 0.1134753998 2.3024448511 0.4265087231
--
0 1
O -1.6876171722 -0.8684127028 0.1335451813
H -1.4498657048 0.0441847766 -0.0498069795
H -0.8394721432 -1.3248690487 0.0886185550
$end

$rem
JOBTYPE EDA
EDA2 1
method wB97X-V
BASIS def2-qzvppd
XC_GRID 000099000590
NL_GRID 1
UNRESTRICTED FALSE
MAX_SCF_CYCLES 200
SYMMETRY FALSE
SYM_IGNORE TRUE
mem_total  16000
BASIS_LIN_DEP_THRESH 8
THRESH 14
SCF_CONVERGENCE 7
SCF_PRINT_FRGM TRUE
$end

--------------------------------------------------------------
 ----------------------------------------------------------------
             Standard Nuclear Orientation (Angstroms)
    I     Atom           X                Y                Z
 ----------------------------------------------------------------
    1      O       1.2948975333    -1.0824655356    -0.1226659383
    2      H       1.1339298150    -0.1308894691    -0.0915801347
    3      H       1.9124838417    -1.2673720503     0.5869372358
    4      O       0.1733378377     1.6306190187    -0.2566846622
    5      H       0.2108295927     2.1057801602    -1.0902909804
    6      H       0.1134753998     2.3024448511     0.4265087231
    7      O      -1.6876171722    -0.8684127028     0.1335451813
    8      H      -1.4498657048     0.0441847766    -0.0498069795
    9      H      -0.8394721432    -1.3248690487     0.0886185550
 ----------------------------------------------------------------
 Nuclear Repulsion Energy =          80.31656143 hartrees
 There are       15 alpha and       15 beta electrons
 Requested basis set is def2-QZVPPD
 There are 126 shells and 396 basis functions

 Total QAlloc Memory Limit  16000 MB
 Mega-Array Size       188 MB
 MEM_STATIC part       192 MB


                       Distance Matrix (Angstroms)
             O (  1)   H (  2)   H (  3)   O (  4)   H (  5)   H (  6)
   H (  2)  0.965595
   H (  3)  0.958718  1.535619
   O (  4)  2.938824  2.013184  3.483487
   H (  5)  3.503771  2.617676  4.133628  0.960252
   H (  6)  3.626978  2.689026  4.000720  0.960045  1.532591
   O (  7)  3.001143  2.925021  3.650405  3.140158  3.734662  3.658429
   H (  8)  2.967891  2.590057  3.664835  2.279114  2.844414  2.787589
   H (  9)  2.158457  2.313520  2.797300  3.143235  3.776548  3.765592
             O (  7)   H (  8)
   H (  8)  0.960717
   H (  9)  0.964220  1.505341
 
 A cutoff of  1.0D-14 yielded   7386 shell pairs
 There are     72844 function pairs (    103704 Cartesian)
 Smallest overlap matrix eigenvalue = 2.29E-05

 Scale SEOQF with 1.000000e-01/1.000000e-01/1.000000e-01

 Standard Electronic Orientation quadrupole field applied
 Nucleus-field energy     =     0.0000000049 hartrees

 -----------------------------------------------------------------------
  General SCF calculation program by
  Eric Jon Sundstrom, Paul Horn, Yuezhi Mao, Dmitri Zuev, Alec White,
  David Stuck, Shaama M.S., Shane Yost, Joonho Lee, David Small,
  Daniel Levine, Susi Lehtola, Hugh Burton, Evgeny Epifanovsky,
  Bang C. Huynh
 -----------------------------------------------------------------------
================================================================
                 ALMO-EDA with the EDA2 driver                  
================================================================
 The second-generation ALMO-EDA (for DFT):                      
 P. R. Horn, Y. Mao and M. Head-Gordon, PCCP, 18, 23067 (2016)  
 Y. Mao et al. Annu. Rev. Phys. Chem. 72, 641 (2021)            
 Decomposition of the frozen energy:                            
 P. R. Horn, Y. Mao and M. Head-Gordon, JCP, 144, 114107 (2016) 
 FERF model for polarization:                                   
 P. R. Horn and M. Head-Gordon, JCP, 143, 114111 (2015)         
================================================================
 Using eda2 option set 1
 Option set summary: Frozen orbital wavefunction, initial wavefunction decomposition, and nDQ polarization.
--------------------------------
Printing EDA Options
--------------------------------
eda_child_super_basis      0
fragmo_guess_mode          0
child_mp                   1
child_mp_orders            232
cls_elec                   1
cls_disp                   0
scfmi_mode                 1
scfmi_occs                 0
scfmi_virts                0
frz_relax                  0
frz_relax_method           0
dc_pen_start               0
dc_pen_conv                0
dc_pen_increment           0
dc_pen_steps               0
dc_pen_thresh_factor       0
dc_pen_pre_newton_thresh   0
frz_ortho_decomp           1
frz_ortho_decomp_conv      6
plot_mo_ortho_frz          0
frgm_method                2
scfmi_freeze_ss            0
separate_rehyb             0
plot_diff_den              0
eda_nocv                   0
eda_vct_relax              1
disp_free_x                0
disp_free_c                0
eda_bsse                   0
eda_pct_a                  0
eda_covp                   0
--------------------------------
 Attempting to make child job directory: /tmp/qchem251887//Frg1/
 Attempting to make child job directory: /tmp/qchem251887//Frg2/
 Attempting to make child job directory: /tmp/qchem251887//Frg3/
 Creating input file /tmp/qchem251887/Frg1.input
 using default PutDataFrgm: nothing
 calling putenv with: QCSCRATCH=/tmp/qchem251887/ 
 calling putenv with: QCLOCALSCR=/tmp/qchem251887/ 
 Spawning Job For Fragment 0
                  Welcome to Q-Chem
     A Quantum Leap Into The Future Of Chemistry


 Q-Chem 6.0, Q-Chem, Inc., Pleasanton, CA (2022)

 License issued to: National Energy Research Scientific Computing Center (site)

 E. Epifanovsky,  A. T. B. Gilbert,  Xintian Feng,  Joonho Lee,  Yuezhi Mao,  
 N. Mardirossian,  P. Pokhilko,  A. White,  M. Wormit,  M. P. Coons,  
 A. L. Dempwolff,  Zhengting Gan,  D. Hait,  P. R. Horn,  L. D. Jacobson,  
 I. Kaliman,  J. Kussmann,  A. W. Lange,  Ka Un Lao,  D. S. Levine,  Jie Liu,  
 S. C. McKenzie,  A. F. Morrison,  K. Nanda,  F. Plasser,  D. R. Rehn,  
 M. L. Vidal,  Zhi-Qiang You,  Ying Zhu,  B. Alam,  B. Albrecht,  
 A. Aldossary,  E. Alguire,  J. H. Andersen,  V. Athavale,  D. Barton,  
 K. Begam,  A. Behn,  N. Bellonzi,  Y. A. Bernard,  E. J. Berquist,  
 H. Burton,  A. Carreras,  K. Carter-Fenk,  Romit Chakraborty,  
 Chandrima Chakravarty,  Junhan Chen,  A. D. Chien,  K. D. Closser,  
 V. Cofer-Shabica,  L. Cunha,  S. Dasgupta,  Jia Deng,  M. de Wergifosse,  
 M. Diedenhofen,  Hainam Do,  S. Ehlert,  Po-Tung Fang,  S. Fatehi,  
 Qingguo Feng,  T. Friedhoff,  B. Ganoe,  J. Gayvert,  Qinghui Ge,  
 G. Gidofalvi,  M. Goldey,  J. Gomes,  C. Gonzalez-Espinoza,  S. Gulania,  
 A. Gunina,  J. A. Gyamfi,  M. W. D. Hanson-Heine,  P. H. P. Harbach,  
 A. W. Hauser,  M. F. Herbst,  M. Hernandez Vera,  M. Hodecker,  
 Z. C. Holden,  S. Houck,  Xunkun Huang,  Kerwin Hui,  B. C. Huynh,  
 K. Ikeda,  M. Ivanov,  Hyunjun Ji,  Zuxin Jin,  Hanjie Jiang,  B. Kaduk,  
 S. Kaehler,  R. Kang,  K. Khistyaev,  Jaehoon Kim,  Yongbin Kim,  
 P. Klunzinger,  Z. Koczor-Benda,  Joong Hoon Koh,  D. Kosenkov,  
 Saikiran Kotaru,  L. Koulias,  T. Kowalczyk,  C. M. Krauter,  K. Kue,  
 A. Kunitsa,  T. Kus,  A. Landau,  K. V. Lawler,  D. Lefrancois,  S. Lehtola,  
 Rain Li,  Shaozhi Li,  Yi-Pei Li,  Jiashu Liang,  M. Liebenthal,  
 Hung-Hsuan Lin,  You-Sheng Lin,  Fenglai Liu,  Kuan-Yu Liu,  
 M. Loipersberger,  A. Luenser,  C. Malbon,  A. Manjanath,  P. Manohar,  
 E. Mansoor,  S. F. Manzer,  Shan-Ping Mao,  A. V. Marenich,  T. Markovich,  
 S. Mason,  F. Matz,  S. A. Maurer,  P. F. McLaughlin,  M. F. S. J. Menger,  
 J.-M. Mewes,  S. A. Mewes,  P. Morgante,  Mohammad Mostafanejad,  
 J. W. Mullinax,  K. J. Oosterbaan,  G. Paran,  V. Parravicini,  
 Alexander C. Paul,  Suranjan K. Paul,  F. Pavosevic,  Zheng Pei,  S. Prager,  
 E. I. Proynov,  E. Ramos,  B. Rana,  A. E. Rask,  A. Rettig,  R. M. Richard,  
 F. Rob,  E. Rossomme,  T. Scheele,  M. Scheurer,  M. Schneider,  
 P. E. Schneider,  N. Sergueev,  S. M. Sharada,  Hengyuan Shen,  
 W. Skomorowski,  D. W. Small,  C. J. Stein,  Yingli Su,  Yu-Chuan Su,  
 E. J. Sundstrom,  Zhen Tao,  J. Thirman,  Hung-Yi Tsai,  T. Tsuchimochi,  
 N. M. Tubman,  C. Utku,  S. P. Veccham,  O. Vydrov,  J. Wenzel,  
 Jonathan Wong,  J. Witte,  A. Yamada,  Chou-Hsun Yang,  Kun Yao,  
 S. Yeganeh,  S. R. Yost,  A. Zech,  F. Zeller,  Igor Ying Zhang,  
 Xing Zhang,  Yu Zhang,  D. Zuev,  A. Aspuru-Guzik,  A. T. Bell,  
 N. A. Besley,  K. B. Bravaya,  B. R. Brooks,  D. Casanova,  Jeng-Da Chai,  
 Hsing-Ta Chen,  S. Coriani,  C. J. Cramer,  A. E. DePrince, III,  
 R. A. DiStasio Jr.,  A. Dreuw,  B. D. Dunietz,  T. R. Furlani,  
 W. A. Goddard III,  S. Grimme,  S. Hammes-Schiffer,  T. Head-Gordon,  
 W. J. Hehre,  Chao-Ping Hsu,  T.-C. Jagau,  Yousung Jung,  A. Klamt,  
 Jing Kong,  D. S. Lambrecht,  Xiangyuan Li,  WanZhen Liang,  N. J. Mayhall,  
 C. W. McCurdy,  J. B. Neaton,  T. Neudecker,  C. Ochsenfeld,  
 J. A. Parkhill,  R. Peverati,  V. A. Rassolov,  Haisheng Ren,  Yihan Shao,  
 L. V. Slipchenko,  R. P. Steele,  J. E. Subotnik,  A. J. W. Thom,  
 A. Tkatchenko,  D. G. Truhlar,  T. Van Voorhis,  Fan Wang,  
 T. A. Wesolowski,  K. B. Whaley,  H. L. Woodcock III,  P. M. Zimmerman,  
 S. Faraji,  P. M. W. Gill,  M. Head-Gordon,  J. M. Herbert,  A. I. Krylov

 Contributors to earlier versions of Q-Chem not listed above: 
 R. D. Adamson,  B. Austin,  R. Baer,  J. Baker,  G. J. O. Beran,  
 K. Brandhorst,  S. T. Brown,  E. F. C. Byrd,  Arup K. Chakraborty,  
 G. K. L. Chan,  Chun-Min Chang,  Yunqing Chen,  C.-L. Cheng,  
 Siu Hung Chien,  D. M. Chipman,  D. L. Crittenden,  H. Dachsel,  
 R. J. Doerksen,  A. D. Dutoi,  R. G. Edgar,  J. Fosso-Tande,  
 L. Fusti-Molnar,  D. Ghosh,  A. Ghysels,  A. Golubeva-Zadorozhnaya,  
 J. Gonthier,  M. S. Gordon,  S. R. Gwaltney,  G. Hawkins,  J. E. Herr,  
 A. Heyden,  S. Hirata,  E. G. Hohenstein,  G. Kedziora,  F. J. Keil,  
 C. Kelley,  Jihan Kim,  R. A. King,  R. Z. Khaliullin,  P. P. Korambath,  
 W. Kurlancheek,  A. Laurent,  A. M. Lee,  M. S. Lee,  S. V. Levchenko,  
 Ching Yeh Lin,  D. Liotard,  E. Livshits,  R. C. Lochan,  I. Lotan,  
 L. A. Martinez-Martinez,  P. E. Maslen,  N. Nair,  D. P. O'Neill,  
 D. Neuhauser,  E. Neuscamman,  C. M. Oana,  R. Olivares-Amaya,  R. Olson,  
 T. M. Perrine,  B. Peters,  P. A. Pieniazek,  A. Prociuk,  Y. M. Rhee,  
 J. Ritchie,  M. A. Rohrdanz,  E. Rosta,  N. J. Russ,  H. F. Schaefer III,  
 M. W. Schmidt,  N. E. Schultz,  S. Sharma,  N. Shenvi,  C. D. Sherrill,  
 A. C. Simmonett,  A. Sodt,  T. Stein,  D. Stuck,  K. S. Thanthiriwatte,  
 V. Vanovschi,  L. Vogt,  Tao Wang,  A. Warshel,  M. A. Watson,  
 C. F. Williams,  Q. Wu,  X. Xu,  Jun Yang,  W. Zhang,  Yan Zhao

   Please cite Q-Chem as follows:
  "Software for the frontiers of quantum chemistry:
   An overview of developments in the Q-Chem 5 package"
   J. Chem. Phys. 155, 084801 (2021)
   https://doi.org/10.1063/5.0055522 (open access)

 Q-Chem 6.0.0 for Intel X86 EM64T Linux

 Parts of Q-Chem use Armadillo 9.900.5 (Nocturnal Misbehaviour).
 http://arma.sourceforge.net/

 Q-Chem begins on Tue Jan  2 15:11:47 2024  

 Host: login27
0

     Scratch files written to /tmp/qchem251887//Frg1//
 Jul222 |scratch|qcdevops|jenkins|workspace|build_RNUM 7470   
 Processing $rem in /global/common/software/nersc/pm-stable/sw/qchem/6.0.0/config/preferences:
 Processing $rem in /global/homes/h/heindelj/.qchemrc:

 Checking the input file for inconsistencies... 	...done.

--------------------------------------------------------------
User input:
--------------------------------------------------------------
$molecule
0 1
 8	1.2948975333	-1.0824655356	-0.1226659383
 1	1.1339298150	-0.1308894691	-0.0915801347
 1	1.9124838417	-1.2673720503	0.5869372358
$end
$rem
EDA2		1
METHOD		WB97X-V
BASIS		DEF2-QZVPPD
XC_GRID		000099000590
NL_GRID		1
UNRESTRICTED		FALSE
MAX_SCF_CYCLES		200
SYMMETRY		FALSE
SYM_IGNORE		TRUE
BASIS_LIN_DEP_THRESH		8
THRESH		14
SCF_CONVERGENCE		7
SCF_PRINT_FRGM		TRUE
!required keywords
JOBTYPE		SP
SYM_IGNORE		TRUE
SUBSYSTEM		TRUE
CHILD_INSTRUCTION		2
GEN_SCFMAN		TRUE
SYM_IGNORE		TRUE
SCF_CONVERGENCE		7
MEM_STATIC		192
MEM_TOTAL		16000
PURECART		1111111
FRGM_METHOD		FALSE
CHILD_MP		1
CHILD_MP_ORDERS		232
EDA2		FALSE
FRZ_RELAX		0
FRZ_RELAX_METHOD		0
EDA_CLS_ELEC		1
EDA_CLS_DISP		0
FRZ_ORTHO_DECOMP		1
ECP		0
$end
--------------------------------------------------------------
 ----------------------------------------------------------------
             Standard Nuclear Orientation (Angstroms)
    I     Atom           X                Y                Z
 ----------------------------------------------------------------
    1      O       1.2948975333    -1.0824655356    -0.1226659383
    2      H       1.1339298150    -0.1308894691    -0.0915801347
    3      H       1.9124838417    -1.2673720503     0.5869372358
 ----------------------------------------------------------------
 Nuclear Repulsion Energy =           9.14456703 hartrees
 There are        5 alpha and        5 beta electrons
 Requested basis set is def2-QZVPPD
 There are 42 shells and 132 basis functions

 Total QAlloc Memory Limit  16000 MB
 Mega-Array Size       188 MB
 MEM_STATIC part       192 MB


                       Distance Matrix (Angstroms)
             O (  1)   H (  2)
   H (  2)  0.965595
   H (  3)  0.958718  1.535619
 
 A cutoff of  1.0D-14 yielded    903 shell pairs
 There are      9017 function pairs (     13005 Cartesian)
 Smallest overlap matrix eigenvalue = 1.35E-04

 Scale SEOQF with 1.000000e-01/1.000000e-01/1.000000e-01

 Standard Electronic Orientation quadrupole field applied
 Nucleus-field energy     =     0.0000000014 hartrees
 Guess from superposition of atomic densities
 Warning:  Energy on first SCF cycle will be non-variational
 SAD guess density has 10.000000 electrons

 -----------------------------------------------------------------------
  General SCF calculation program by
  Eric Jon Sundstrom, Paul Horn, Yuezhi Mao, Dmitri Zuev, Alec White,
  David Stuck, Shaama M.S., Shane Yost, Joonho Lee, David Small,
  Daniel Levine, Susi Lehtola, Hugh Burton, Evgeny Epifanovsky,
  Bang C. Huynh
 -----------------------------------------------------------------------
 Exchange:     0.1670 Hartree-Fock + 1.0000 wB97X-V + LR-HF
 Correlation:  1.0000 wB97X-V
 Using Euler-Maclaurin-Lebedev (99,590) quadrature formula
 Nonlocal Correlation:  VV10 with C = 0.0100 and b = 6.00 and scale = 1.00000
 Grid used for NLC:  SG-1 standard quadrature
Energy prior to optimization (guess energy) = -76.386977356829
Begin Timing: Total SCF Calculation
begin iterations for algorithm: DIIS         
the SCF tolerance is set to 1.00e-07
    1     -76.3869773568      5.70e-03     00000 
    2     -76.3879196399      6.23e-03     00000 
    3     -76.4406145116      2.68e-04     00000 
    4     -76.4407193447      6.86e-05     00000 
    5     -76.4407307606      8.60e-06     00000 
    6     -76.4407311057      1.17e-06     00000 
    7     -76.4407311172      2.24e-07     00000 
    8     -76.4407311176      3.04e-08     00000 Convergence criterion met
Timing for Total SCF: 3.00s (wall), 160.35s (cpu)
Multipole orders to be included
        2
        3
computing dipole RHS
computing quadrupole RHS
total number of RHS in solve_reponses: 8
RHS batch sizes
        8
Beginning Block Conjugate Gradient Iterations. Batch Number: 0
              1      4.15e-01     00000 Conjugate Gradient Iteration
              2      1.22e-01     00000 Conjugate Gradient Iteration
              3      2.26e-02     00000 Conjugate Gradient Iteration
              4      3.57e-03     00000 Conjugate Gradient Iteration
              5      4.46e-04     00000 Conjugate Gradient Iteration
              6      5.53e-05     00000 Conjugate Gradient Iteration
              7      4.25e-06     00000 Conjugate Gradient Iteration
              8      3.02e-07     00000 Conjugate Gradient Iteration
              9      2.28e-08     00000 Conjugate Gradient Iteration
             10      1.98e-09     00000 CG Converged
batch 0 complete
Done Calculating Responses
TESTING ORTHOGONALIZATION OF MULTIPOLE BASIS
Max deviation in metric = 2.37e-12
Multipole virts passed orthogonality test
Virts Per Order
        15
        25
 
 --------------------------------------------------------------
 
                    Orbital Energies (a.u.)
 --------------------------------------------------------------
 
 Alpha MOs
 -- Occupied --
-19.2193  -1.1434  -0.6483  -0.5038  -0.4299
 -- Virtual --
  0.0566   0.0816   0.1063   0.1078   0.1847   0.2024   0.2267   0.2353
  0.2464   0.2799   0.3091   0.3353   0.4096   0.4158   0.4477   0.5021
  0.5166   0.5186   0.5758   0.5932   0.6037   0.7122   0.8380   0.8785
  0.9121   1.0103   1.0599   1.1105   1.1779   1.2039   1.4054   1.4428
  1.5023   1.5217   1.5747   1.6505   1.6811   1.9840   2.0152   2.0797
  2.1151   2.3297   2.3682   2.5162   2.5210   2.5442   2.6418   2.6768
  2.7458   2.7690   2.7860   3.0111   3.1868   3.2784   3.3429   3.5119
  3.7906   3.9634   3.9702   3.9979   4.1804   4.2182   4.3414   4.3418
  4.4864   4.6605   4.8852   4.9019   5.3359   5.4505   5.5197   5.8097
  5.9863   6.0508   6.1186   6.4521   6.6200   6.8104   7.1503   7.2079
  7.3193   7.3434   7.4231   7.4401   7.5041   7.5114   7.7459   7.7744
  7.8530   7.9081   7.9223   7.9575   8.0752   8.1599   8.4249   8.6179
  8.6844   8.8466   8.8476   9.0982   9.1359   9.8754   9.9122  10.3027
 10.4121  10.7771  10.8613  11.0068  11.1856  11.2226  11.3701  11.5396
 11.8055  11.8700  11.9322  11.9746  12.3291  12.9316  13.5767  13.6685
 13.7195  14.1412  14.4917  16.7654  16.8346  48.4277 253.3602
 --------------------------------------------------------------
 
          Ground-State Mulliken Net Atomic Charges

     Atom                 Charge (a.u.)
  ----------------------------------------
      1 O                    -0.412579
      2 H                     0.206816
      3 H                     0.205763
  ----------------------------------------
  Sum of atomic charges =     0.000000

 -----------------------------------------------------------------
                    Cartesian Multipole Moments
 -----------------------------------------------------------------
    Charge (ESU x 10^10)
                -0.0000
    Dipole Moment (Debye)
         X       0.7325      Y       1.2249      Z       1.1870
       Tot       1.8563
    Quadrupole Moments (Debye-Ang)
        XX      -4.7396     XY      -0.0307     YY      -7.8212
        XZ       2.6470     YZ      -1.8162     ZZ      -6.6987
    Octopole Moments (Debye-Ang^2)
       XXX     -22.3889    XXY       4.4967    XYY      -8.0257
       YYY      21.6103    XXZ       5.8417    XYZ      -3.6387
       YYZ       2.8573    XZZ      -8.5398    YZZ       6.7089
       ZZZ       1.8951
    Hexadecapole Moments (Debye-Ang^3)
      XXXX     -69.5663   XXXY      20.5091   XXYY     -16.8828
      XYYY      25.5476   YYYY     -51.2341   XXXZ      12.2190
      XXYZ      -7.5310   XYYZ       5.2457   YYYZ      -4.5031
      XXZZ     -13.2304   XYZZ       8.4265   YYZZ      -9.3952
      XZZZ       2.7107   YZZZ      -2.0546   ZZZZ      -7.8814
 -----------------------------------------------------------------
 Total job time:  9.11s(wall), 540.40s(cpu) 
 Tue Jan  2 15:11:56 2024

        *************************************************************
        *                                                           *
        *  Thank you very much for using Q-Chem.  Have a nice day.  *
        *                                                           *
        *************************************************************


 Done Job For Fragment 0
 calling putenv with: QCSCRATCH=/pscratch/sd/h/heindelj 
 calling putenv with: QCLOCALSCR=/tmp 
 calling putenv with: QCTHREADS=64 
 Creating input file /tmp/qchem251887/Frg2.input
 using default PutDataFrgm: nothing
 calling putenv with: QCSCRATCH=/tmp/qchem251887/ 
 calling putenv with: QCLOCALSCR=/tmp/qchem251887/ 
 Spawning Job For Fragment 1
                  Welcome to Q-Chem
     A Quantum Leap Into The Future Of Chemistry


 Q-Chem 6.0, Q-Chem, Inc., Pleasanton, CA (2022)

 License issued to: National Energy Research Scientific Computing Center (site)

 E. Epifanovsky,  A. T. B. Gilbert,  Xintian Feng,  Joonho Lee,  Yuezhi Mao,  
 N. Mardirossian,  P. Pokhilko,  A. White,  M. Wormit,  M. P. Coons,  
 A. L. Dempwolff,  Zhengting Gan,  D. Hait,  P. R. Horn,  L. D. Jacobson,  
 I. Kaliman,  J. Kussmann,  A. W. Lange,  Ka Un Lao,  D. S. Levine,  Jie Liu,  
 S. C. McKenzie,  A. F. Morrison,  K. Nanda,  F. Plasser,  D. R. Rehn,  
 M. L. Vidal,  Zhi-Qiang You,  Ying Zhu,  B. Alam,  B. Albrecht,  
 A. Aldossary,  E. Alguire,  J. H. Andersen,  V. Athavale,  D. Barton,  
 K. Begam,  A. Behn,  N. Bellonzi,  Y. A. Bernard,  E. J. Berquist,  
 H. Burton,  A. Carreras,  K. Carter-Fenk,  Romit Chakraborty,  
 Chandrima Chakravarty,  Junhan Chen,  A. D. Chien,  K. D. Closser,  
 V. Cofer-Shabica,  L. Cunha,  S. Dasgupta,  Jia Deng,  M. de Wergifosse,  
 M. Diedenhofen,  Hainam Do,  S. Ehlert,  Po-Tung Fang,  S. Fatehi,  
 Qingguo Feng,  T. Friedhoff,  B. Ganoe,  J. Gayvert,  Qinghui Ge,  
 G. Gidofalvi,  M. Goldey,  J. Gomes,  C. Gonzalez-Espinoza,  S. Gulania,  
 A. Gunina,  J. A. Gyamfi,  M. W. D. Hanson-Heine,  P. H. P. Harbach,  
 A. W. Hauser,  M. F. Herbst,  M. Hernandez Vera,  M. Hodecker,  
 Z. C. Holden,  S. Houck,  Xunkun Huang,  Kerwin Hui,  B. C. Huynh,  
 K. Ikeda,  M. Ivanov,  Hyunjun Ji,  Zuxin Jin,  Hanjie Jiang,  B. Kaduk,  
 S. Kaehler,  R. Kang,  K. Khistyaev,  Jaehoon Kim,  Yongbin Kim,  
 P. Klunzinger,  Z. Koczor-Benda,  Joong Hoon Koh,  D. Kosenkov,  
 Saikiran Kotaru,  L. Koulias,  T. Kowalczyk,  C. M. Krauter,  K. Kue,  
 A. Kunitsa,  T. Kus,  A. Landau,  K. V. Lawler,  D. Lefrancois,  S. Lehtola,  
 Rain Li,  Shaozhi Li,  Yi-Pei Li,  Jiashu Liang,  M. Liebenthal,  
 Hung-Hsuan Lin,  You-Sheng Lin,  Fenglai Liu,  Kuan-Yu Liu,  
 M. Loipersberger,  A. Luenser,  C. Malbon,  A. Manjanath,  P. Manohar,  
 E. Mansoor,  S. F. Manzer,  Shan-Ping Mao,  A. V. Marenich,  T. Markovich,  
 S. Mason,  F. Matz,  S. A. Maurer,  P. F. McLaughlin,  M. F. S. J. Menger,  
 J.-M. Mewes,  S. A. Mewes,  P. Morgante,  Mohammad Mostafanejad,  
 J. W. Mullinax,  K. J. Oosterbaan,  G. Paran,  V. Parravicini,  
 Alexander C. Paul,  Suranjan K. Paul,  F. Pavosevic,  Zheng Pei,  S. Prager,  
 E. I. Proynov,  E. Ramos,  B. Rana,  A. E. Rask,  A. Rettig,  R. M. Richard,  
 F. Rob,  E. Rossomme,  T. Scheele,  M. Scheurer,  M. Schneider,  
 P. E. Schneider,  N. Sergueev,  S. M. Sharada,  Hengyuan Shen,  
 W. Skomorowski,  D. W. Small,  C. J. Stein,  Yingli Su,  Yu-Chuan Su,  
 E. J. Sundstrom,  Zhen Tao,  J. Thirman,  Hung-Yi Tsai,  T. Tsuchimochi,  
 N. M. Tubman,  C. Utku,  S. P. Veccham,  O. Vydrov,  J. Wenzel,  
 Jonathan Wong,  J. Witte,  A. Yamada,  Chou-Hsun Yang,  Kun Yao,  
 S. Yeganeh,  S. R. Yost,  A. Zech,  F. Zeller,  Igor Ying Zhang,  
 Xing Zhang,  Yu Zhang,  D. Zuev,  A. Aspuru-Guzik,  A. T. Bell,  
 N. A. Besley,  K. B. Bravaya,  B. R. Brooks,  D. Casanova,  Jeng-Da Chai,  
 Hsing-Ta Chen,  S. Coriani,  C. J. Cramer,  A. E. DePrince, III,  
 R. A. DiStasio Jr.,  A. Dreuw,  B. D. Dunietz,  T. R. Furlani,  
 W. A. Goddard III,  S. Grimme,  S. Hammes-Schiffer,  T. Head-Gordon,  
 W. J. Hehre,  Chao-Ping Hsu,  T.-C. Jagau,  Yousung Jung,  A. Klamt,  
 Jing Kong,  D. S. Lambrecht,  Xiangyuan Li,  WanZhen Liang,  N. J. Mayhall,  
 C. W. McCurdy,  J. B. Neaton,  T. Neudecker,  C. Ochsenfeld,  
 J. A. Parkhill,  R. Peverati,  V. A. Rassolov,  Haisheng Ren,  Yihan Shao,  
 L. V. Slipchenko,  R. P. Steele,  J. E. Subotnik,  A. J. W. Thom,  
 A. Tkatchenko,  D. G. Truhlar,  T. Van Voorhis,  Fan Wang,  
 T. A. Wesolowski,  K. B. Whaley,  H. L. Woodcock III,  P. M. Zimmerman,  
 S. Faraji,  P. M. W. Gill,  M. Head-Gordon,  J. M. Herbert,  A. I. Krylov

 Contributors to earlier versions of Q-Chem not listed above: 
 R. D. Adamson,  B. Austin,  R. Baer,  J. Baker,  G. J. O. Beran,  
 K. Brandhorst,  S. T. Brown,  E. F. C. Byrd,  Arup K. Chakraborty,  
 G. K. L. Chan,  Chun-Min Chang,  Yunqing Chen,  C.-L. Cheng,  
 Siu Hung Chien,  D. M. Chipman,  D. L. Crittenden,  H. Dachsel,  
 R. J. Doerksen,  A. D. Dutoi,  R. G. Edgar,  J. Fosso-Tande,  
 L. Fusti-Molnar,  D. Ghosh,  A. Ghysels,  A. Golubeva-Zadorozhnaya,  
 J. Gonthier,  M. S. Gordon,  S. R. Gwaltney,  G. Hawkins,  J. E. Herr,  
 A. Heyden,  S. Hirata,  E. G. Hohenstein,  G. Kedziora,  F. J. Keil,  
 C. Kelley,  Jihan Kim,  R. A. King,  R. Z. Khaliullin,  P. P. Korambath,  
 W. Kurlancheek,  A. Laurent,  A. M. Lee,  M. S. Lee,  S. V. Levchenko,  
 Ching Yeh Lin,  D. Liotard,  E. Livshits,  R. C. Lochan,  I. Lotan,  
 L. A. Martinez-Martinez,  P. E. Maslen,  N. Nair,  D. P. O'Neill,  
 D. Neuhauser,  E. Neuscamman,  C. M. Oana,  R. Olivares-Amaya,  R. Olson,  
 T. M. Perrine,  B. Peters,  P. A. Pieniazek,  A. Prociuk,  Y. M. Rhee,  
 J. Ritchie,  M. A. Rohrdanz,  E. Rosta,  N. J. Russ,  H. F. Schaefer III,  
 M. W. Schmidt,  N. E. Schultz,  S. Sharma,  N. Shenvi,  C. D. Sherrill,  
 A. C. Simmonett,  A. Sodt,  T. Stein,  D. Stuck,  K. S. Thanthiriwatte,  
 V. Vanovschi,  L. Vogt,  Tao Wang,  A. Warshel,  M. A. Watson,  
 C. F. Williams,  Q. Wu,  X. Xu,  Jun Yang,  W. Zhang,  Yan Zhao

   Please cite Q-Chem as follows:
  "Software for the frontiers of quantum chemistry:
   An overview of developments in the Q-Chem 5 package"
   J. Chem. Phys. 155, 084801 (2021)
   https://doi.org/10.1063/5.0055522 (open access)

 Q-Chem 6.0.0 for Intel X86 EM64T Linux

 Parts of Q-Chem use Armadillo 9.900.5 (Nocturnal Misbehaviour).
 http://arma.sourceforge.net/

 Q-Chem begins on Tue Jan  2 15:11:56 2024  

 Host: login27
0

     Scratch files written to /tmp/qchem251887//Frg2//
 Jul222 |scratch|qcdevops|jenkins|workspace|build_RNUM 7470   
 Processing $rem in /global/common/software/nersc/pm-stable/sw/qchem/6.0.0/config/preferences:
 Processing $rem in /global/homes/h/heindelj/.qchemrc:

 Checking the input file for inconsistencies... 	...done.

--------------------------------------------------------------
User input:
--------------------------------------------------------------
$molecule
0 1
 8	0.1733378377	1.6306190187	-0.2566846622
 1	0.2108295927	2.1057801602	-1.0902909804
 1	0.1134753998	2.3024448511	0.4265087231
$end
$rem
EDA2		1
METHOD		WB97X-V
BASIS		DEF2-QZVPPD
XC_GRID		000099000590
NL_GRID		1
UNRESTRICTED		FALSE
MAX_SCF_CYCLES		200
SYMMETRY		FALSE
SYM_IGNORE		TRUE
BASIS_LIN_DEP_THRESH		8
THRESH		14
SCF_CONVERGENCE		7
SCF_PRINT_FRGM		TRUE
!required keywords
JOBTYPE		SP
SYM_IGNORE		TRUE
SUBSYSTEM		TRUE
CHILD_INSTRUCTION		2
GEN_SCFMAN		TRUE
SYM_IGNORE		TRUE
SCF_CONVERGENCE		7
MEM_STATIC		192
MEM_TOTAL		16000
PURECART		1111111
FRGM_METHOD		FALSE
CHILD_MP		1
CHILD_MP_ORDERS		232
EDA2		FALSE
FRZ_RELAX		0
FRZ_RELAX_METHOD		0
EDA_CLS_ELEC		1
EDA_CLS_DISP		0
FRZ_ORTHO_DECOMP		1
ECP		0
$end
--------------------------------------------------------------
 ----------------------------------------------------------------
             Standard Nuclear Orientation (Angstroms)
    I     Atom           X                Y                Z
 ----------------------------------------------------------------
    1      O       0.1733378377     1.6306190187    -0.2566846622
    2      H       0.2108295927     2.1057801602    -1.0902909804
    3      H       0.1134753998     2.3024448511     0.4265087231
 ----------------------------------------------------------------
 Nuclear Repulsion Energy =           9.16353984 hartrees
 There are        5 alpha and        5 beta electrons
 Requested basis set is def2-QZVPPD
 There are 42 shells and 132 basis functions

 Total QAlloc Memory Limit  16000 MB
 Mega-Array Size       188 MB
 MEM_STATIC part       192 MB


                       Distance Matrix (Angstroms)
             O (  1)   H (  2)
   H (  2)  0.960252
   H (  3)  0.960045  1.532591
 
 A cutoff of  1.0D-14 yielded    903 shell pairs
 There are      9017 function pairs (     13005 Cartesian)
 Smallest overlap matrix eigenvalue = 1.33E-04

 Scale SEOQF with 1.000000e-01/1.000000e-01/1.000000e-01

 Standard Electronic Orientation quadrupole field applied
 Nucleus-field energy     =     0.0000000020 hartrees
 Guess from superposition of atomic densities
 Warning:  Energy on first SCF cycle will be non-variational
 SAD guess density has 10.000000 electrons

 -----------------------------------------------------------------------
  General SCF calculation program by
  Eric Jon Sundstrom, Paul Horn, Yuezhi Mao, Dmitri Zuev, Alec White,
  David Stuck, Shaama M.S., Shane Yost, Joonho Lee, David Small,
  Daniel Levine, Susi Lehtola, Hugh Burton, Evgeny Epifanovsky,
  Bang C. Huynh
 -----------------------------------------------------------------------
 Exchange:     0.1670 Hartree-Fock + 1.0000 wB97X-V + LR-HF
 Correlation:  1.0000 wB97X-V
 Using Euler-Maclaurin-Lebedev (99,590) quadrature formula
 Nonlocal Correlation:  VV10 with C = 0.0100 and b = 6.00 and scale = 1.00000
 Grid used for NLC:  SG-1 standard quadrature
Energy prior to optimization (guess energy) = -76.386996237723
Begin Timing: Total SCF Calculation
begin iterations for algorithm: DIIS         
the SCF tolerance is set to 1.00e-07
    1     -76.3869962377      5.70e-03     00000 
    2     -76.3881031344      6.22e-03     00000 
    3     -76.4406547864      2.68e-04     00000 
    4     -76.4407594274      6.84e-05     00000 
    5     -76.4407708185      8.60e-06     00000 
    6     -76.4407711642      1.17e-06     00000 
    7     -76.4407711758      2.24e-07     00000 
    8     -76.4407711762      2.98e-08     00000 Convergence criterion met
Timing for Total SCF: 3.00s (wall), 161.86s (cpu)
Multipole orders to be included
        2
        3
computing dipole RHS
computing quadrupole RHS
total number of RHS in solve_reponses: 8
RHS batch sizes
        8
Beginning Block Conjugate Gradient Iterations. Batch Number: 0
              1      4.92e-01     00000 Conjugate Gradient Iteration
              2      1.50e-01     00000 Conjugate Gradient Iteration
              3      2.70e-02     00000 Conjugate Gradient Iteration
              4      4.58e-03     00000 Conjugate Gradient Iteration
              5      6.08e-04     00000 Conjugate Gradient Iteration
              6      7.66e-05     00000 Conjugate Gradient Iteration
              7      5.52e-06     00000 Conjugate Gradient Iteration
              8      3.39e-07     00000 Conjugate Gradient Iteration
              9      2.67e-08     00000 Conjugate Gradient Iteration
             10      2.20e-09     00000 CG Converged
batch 0 complete
Done Calculating Responses
TESTING ORTHOGONALIZATION OF MULTIPOLE BASIS
Max deviation in metric = 1.45e-12
Multipole virts passed orthogonality test
Virts Per Order
        15
        25
 
 --------------------------------------------------------------
 
                    Orbital Energies (a.u.)
 --------------------------------------------------------------
 
 Alpha MOs
 -- Occupied --
-19.2190  -1.1442  -0.6492  -0.5040  -0.4301
 -- Virtual --
  0.0567   0.0816   0.1063   0.1078   0.1850   0.2025   0.2268   0.2355
  0.2465   0.2799   0.3093   0.3354   0.4101   0.4159   0.4476   0.5024
  0.5167   0.5186   0.5761   0.5941   0.6039   0.7118   0.8385   0.8789
  0.9125   1.0109   1.0599   1.1119   1.1789   1.2041   1.4057   1.4427
  1.5022   1.5217   1.5749   1.6505   1.6811   1.9842   2.0157   2.0801
  2.1165   2.3310   2.3698   2.5169   2.5212   2.5449   2.6428   2.6775
  2.7475   2.7699   2.7875   3.0114   3.1888   3.2796   3.3444   3.5127
  3.7932   3.9628   3.9692   3.9961   4.1804   4.2203   4.3430   4.3433
  4.4874   4.6657   4.8933   4.9022   5.3405   5.4543   5.5229   5.8093
  5.9902   6.0531   6.1217   6.4593   6.6239   6.8160   7.1554   7.2112
  7.3227   7.3449   7.4243   7.4464   7.5102   7.5108   7.7468   7.7724
  7.8519   7.9058   7.9240   7.9590   8.0748   8.1583   8.4284   8.6227
  8.6957   8.8550   8.8558   9.1091   9.1447   9.8833   9.9151  10.3079
 10.4176  10.7830  10.8695  11.0128  11.1927  11.2222  11.3697  11.5430
 11.8152  11.8829  11.9382  11.9786  12.3349  12.9490  13.6023  13.6671
 13.7373  14.1555  14.5006  16.8018  16.8367  48.4374 253.3708
 --------------------------------------------------------------
 
          Ground-State Mulliken Net Atomic Charges

     Atom                 Charge (a.u.)
  ----------------------------------------
      1 O                    -0.411482
      2 H                     0.205757
      3 H                     0.205725
  ----------------------------------------
  Sum of atomic charges =     0.000000

 -----------------------------------------------------------------
                    Cartesian Multipole Moments
 -----------------------------------------------------------------
    Charge (ESU x 10^10)
                 0.0000
    Dipole Moment (Debye)
         X      -0.0359      Y       1.8388      Z      -0.2410
       Tot       1.8549
    Quadrupole Moments (Debye-Ang)
        XX      -7.7743     XY       0.1995     YY      -0.0268
        XZ      -0.2413     YZ      -0.6569     ZZ      -4.3036
    Octopole Moments (Debye-Ang^2)
       XXX      -4.0005    XXY     -13.3094    XYY      -0.3259
       YYY     -15.9069    XXZ       2.0072    XYZ      -0.5166
       YYZ       0.3959    XZZ      -0.6322    YZZ      -6.2614
       ZZZ       3.0545
    Hexadecapole Moments (Debye-Ang^3)
      XXXX      -9.0339   XXXY      -6.8540   XXYY     -25.6183
      XYYY      -3.5568   YYYY     -79.3318   XXXZ       1.0813
      XXYZ       3.4117   XYYZ      -0.7625   YYYZ       6.7125
      XXZZ      -3.3451   XYZZ      -0.8706   YYZZ     -11.4750
      XZZZ       0.3876   YZZZ       4.3039   ZZZZ      -7.9227
 -----------------------------------------------------------------
 Total job time:  8.88s(wall), 528.94s(cpu) 
 Tue Jan  2 15:12:05 2024

        *************************************************************
        *                                                           *
        *  Thank you very much for using Q-Chem.  Have a nice day.  *
        *                                                           *
        *************************************************************


 Done Job For Fragment 1
 calling putenv with: QCSCRATCH=/pscratch/sd/h/heindelj 
 calling putenv with: QCLOCALSCR=/tmp 
 calling putenv with: QCTHREADS=64 
 Creating input file /tmp/qchem251887/Frg3.input
 using default PutDataFrgm: nothing
 calling putenv with: QCSCRATCH=/tmp/qchem251887/ 
 calling putenv with: QCLOCALSCR=/tmp/qchem251887/ 
 Spawning Job For Fragment 2
                  Welcome to Q-Chem
     A Quantum Leap Into The Future Of Chemistry


 Q-Chem 6.0, Q-Chem, Inc., Pleasanton, CA (2022)

 License issued to: National Energy Research Scientific Computing Center (site)

 E. Epifanovsky,  A. T. B. Gilbert,  Xintian Feng,  Joonho Lee,  Yuezhi Mao,  
 N. Mardirossian,  P. Pokhilko,  A. White,  M. Wormit,  M. P. Coons,  
 A. L. Dempwolff,  Zhengting Gan,  D. Hait,  P. R. Horn,  L. D. Jacobson,  
 I. Kaliman,  J. Kussmann,  A. W. Lange,  Ka Un Lao,  D. S. Levine,  Jie Liu,  
 S. C. McKenzie,  A. F. Morrison,  K. Nanda,  F. Plasser,  D. R. Rehn,  
 M. L. Vidal,  Zhi-Qiang You,  Ying Zhu,  B. Alam,  B. Albrecht,  
 A. Aldossary,  E. Alguire,  J. H. Andersen,  V. Athavale,  D. Barton,  
 K. Begam,  A. Behn,  N. Bellonzi,  Y. A. Bernard,  E. J. Berquist,  
 H. Burton,  A. Carreras,  K. Carter-Fenk,  Romit Chakraborty,  
 Chandrima Chakravarty,  Junhan Chen,  A. D. Chien,  K. D. Closser,  
 V. Cofer-Shabica,  L. Cunha,  S. Dasgupta,  Jia Deng,  M. de Wergifosse,  
 M. Diedenhofen,  Hainam Do,  S. Ehlert,  Po-Tung Fang,  S. Fatehi,  
 Qingguo Feng,  T. Friedhoff,  B. Ganoe,  J. Gayvert,  Qinghui Ge,  
 G. Gidofalvi,  M. Goldey,  J. Gomes,  C. Gonzalez-Espinoza,  S. Gulania,  
 A. Gunina,  J. A. Gyamfi,  M. W. D. Hanson-Heine,  P. H. P. Harbach,  
 A. W. Hauser,  M. F. Herbst,  M. Hernandez Vera,  M. Hodecker,  
 Z. C. Holden,  S. Houck,  Xunkun Huang,  Kerwin Hui,  B. C. Huynh,  
 K. Ikeda,  M. Ivanov,  Hyunjun Ji,  Zuxin Jin,  Hanjie Jiang,  B. Kaduk,  
 S. Kaehler,  R. Kang,  K. Khistyaev,  Jaehoon Kim,  Yongbin Kim,  
 P. Klunzinger,  Z. Koczor-Benda,  Joong Hoon Koh,  D. Kosenkov,  
 Saikiran Kotaru,  L. Koulias,  T. Kowalczyk,  C. M. Krauter,  K. Kue,  
 A. Kunitsa,  T. Kus,  A. Landau,  K. V. Lawler,  D. Lefrancois,  S. Lehtola,  
 Rain Li,  Shaozhi Li,  Yi-Pei Li,  Jiashu Liang,  M. Liebenthal,  
 Hung-Hsuan Lin,  You-Sheng Lin,  Fenglai Liu,  Kuan-Yu Liu,  
 M. Loipersberger,  A. Luenser,  C. Malbon,  A. Manjanath,  P. Manohar,  
 E. Mansoor,  S. F. Manzer,  Shan-Ping Mao,  A. V. Marenich,  T. Markovich,  
 S. Mason,  F. Matz,  S. A. Maurer,  P. F. McLaughlin,  M. F. S. J. Menger,  
 J.-M. Mewes,  S. A. Mewes,  P. Morgante,  Mohammad Mostafanejad,  
 J. W. Mullinax,  K. J. Oosterbaan,  G. Paran,  V. Parravicini,  
 Alexander C. Paul,  Suranjan K. Paul,  F. Pavosevic,  Zheng Pei,  S. Prager,  
 E. I. Proynov,  E. Ramos,  B. Rana,  A. E. Rask,  A. Rettig,  R. M. Richard,  
 F. Rob,  E. Rossomme,  T. Scheele,  M. Scheurer,  M. Schneider,  
 P. E. Schneider,  N. Sergueev,  S. M. Sharada,  Hengyuan Shen,  
 W. Skomorowski,  D. W. Small,  C. J. Stein,  Yingli Su,  Yu-Chuan Su,  
 E. J. Sundstrom,  Zhen Tao,  J. Thirman,  Hung-Yi Tsai,  T. Tsuchimochi,  
 N. M. Tubman,  C. Utku,  S. P. Veccham,  O. Vydrov,  J. Wenzel,  
 Jonathan Wong,  J. Witte,  A. Yamada,  Chou-Hsun Yang,  Kun Yao,  
 S. Yeganeh,  S. R. Yost,  A. Zech,  F. Zeller,  Igor Ying Zhang,  
 Xing Zhang,  Yu Zhang,  D. Zuev,  A. Aspuru-Guzik,  A. T. Bell,  
 N. A. Besley,  K. B. Bravaya,  B. R. Brooks,  D. Casanova,  Jeng-Da Chai,  
 Hsing-Ta Chen,  S. Coriani,  C. J. Cramer,  A. E. DePrince, III,  
 R. A. DiStasio Jr.,  A. Dreuw,  B. D. Dunietz,  T. R. Furlani,  
 W. A. Goddard III,  S. Grimme,  S. Hammes-Schiffer,  T. Head-Gordon,  
 W. J. Hehre,  Chao-Ping Hsu,  T.-C. Jagau,  Yousung Jung,  A. Klamt,  
 Jing Kong,  D. S. Lambrecht,  Xiangyuan Li,  WanZhen Liang,  N. J. Mayhall,  
 C. W. McCurdy,  J. B. Neaton,  T. Neudecker,  C. Ochsenfeld,  
 J. A. Parkhill,  R. Peverati,  V. A. Rassolov,  Haisheng Ren,  Yihan Shao,  
 L. V. Slipchenko,  R. P. Steele,  J. E. Subotnik,  A. J. W. Thom,  
 A. Tkatchenko,  D. G. Truhlar,  T. Van Voorhis,  Fan Wang,  
 T. A. Wesolowski,  K. B. Whaley,  H. L. Woodcock III,  P. M. Zimmerman,  
 S. Faraji,  P. M. W. Gill,  M. Head-Gordon,  J. M. Herbert,  A. I. Krylov

 Contributors to earlier versions of Q-Chem not listed above: 
 R. D. Adamson,  B. Austin,  R. Baer,  J. Baker,  G. J. O. Beran,  
 K. Brandhorst,  S. T. Brown,  E. F. C. Byrd,  Arup K. Chakraborty,  
 G. K. L. Chan,  Chun-Min Chang,  Yunqing Chen,  C.-L. Cheng,  
 Siu Hung Chien,  D. M. Chipman,  D. L. Crittenden,  H. Dachsel,  
 R. J. Doerksen,  A. D. Dutoi,  R. G. Edgar,  J. Fosso-Tande,  
 L. Fusti-Molnar,  D. Ghosh,  A. Ghysels,  A. Golubeva-Zadorozhnaya,  
 J. Gonthier,  M. S. Gordon,  S. R. Gwaltney,  G. Hawkins,  J. E. Herr,  
 A. Heyden,  S. Hirata,  E. G. Hohenstein,  G. Kedziora,  F. J. Keil,  
 C. Kelley,  Jihan Kim,  R. A. King,  R. Z. Khaliullin,  P. P. Korambath,  
 W. Kurlancheek,  A. Laurent,  A. M. Lee,  M. S. Lee,  S. V. Levchenko,  
 Ching Yeh Lin,  D. Liotard,  E. Livshits,  R. C. Lochan,  I. Lotan,  
 L. A. Martinez-Martinez,  P. E. Maslen,  N. Nair,  D. P. O'Neill,  
 D. Neuhauser,  E. Neuscamman,  C. M. Oana,  R. Olivares-Amaya,  R. Olson,  
 T. M. Perrine,  B. Peters,  P. A. Pieniazek,  A. Prociuk,  Y. M. Rhee,  
 J. Ritchie,  M. A. Rohrdanz,  E. Rosta,  N. J. Russ,  H. F. Schaefer III,  
 M. W. Schmidt,  N. E. Schultz,  S. Sharma,  N. Shenvi,  C. D. Sherrill,  
 A. C. Simmonett,  A. Sodt,  T. Stein,  D. Stuck,  K. S. Thanthiriwatte,  
 V. Vanovschi,  L. Vogt,  Tao Wang,  A. Warshel,  M. A. Watson,  
 C. F. Williams,  Q. Wu,  X. Xu,  Jun Yang,  W. Zhang,  Yan Zhao

   Please cite Q-Chem as follows:
  "Software for the frontiers of quantum chemistry:
   An overview of developments in the Q-Chem 5 package"
   J. Chem. Phys. 155, 084801 (2021)
   https://doi.org/10.1063/5.0055522 (open access)

 Q-Chem 6.0.0 for Intel X86 EM64T Linux

 Parts of Q-Chem use Armadillo 9.900.5 (Nocturnal Misbehaviour).
 http://arma.sourceforge.net/

 Q-Chem begins on Tue Jan  2 15:12:05 2024  

 Host: login27
0

     Scratch files written to /tmp/qchem251887//Frg3//
 Jul222 |scratch|qcdevops|jenkins|workspace|build_RNUM 7470   
 Processing $rem in /global/common/software/nersc/pm-stable/sw/qchem/6.0.0/config/preferences:
 Processing $rem in /global/homes/h/heindelj/.qchemrc:

 Checking the input file for inconsistencies... 	...done.

--------------------------------------------------------------
User input:
--------------------------------------------------------------
$molecule
0 1
 8	-1.6876171722	-0.8684127028	0.1335451813
 1	-1.4498657048	0.0441847766	-0.0498069795
 1	-0.8394721432	-1.3248690487	0.0886185550
$end
$rem
EDA2		1
METHOD		WB97X-V
BASIS		DEF2-QZVPPD
XC_GRID		000099000590
NL_GRID		1
UNRESTRICTED		FALSE
MAX_SCF_CYCLES		200
SYMMETRY		FALSE
SYM_IGNORE		TRUE
BASIS_LIN_DEP_THRESH		8
THRESH		14
SCF_CONVERGENCE		7
SCF_PRINT_FRGM		TRUE
!required keywords
JOBTYPE		SP
SYM_IGNORE		TRUE
SUBSYSTEM		TRUE
CHILD_INSTRUCTION		2
GEN_SCFMAN		TRUE
SYM_IGNORE		TRUE
SCF_CONVERGENCE		7
MEM_STATIC		192
MEM_TOTAL		16000
PURECART		1111111
FRGM_METHOD		FALSE
CHILD_MP		1
CHILD_MP_ORDERS		232
EDA2		FALSE
FRZ_RELAX		0
FRZ_RELAX_METHOD		0
EDA_CLS_ELEC		1
EDA_CLS_DISP		0
FRZ_ORTHO_DECOMP		1
ECP		0
$end
--------------------------------------------------------------
 ----------------------------------------------------------------
             Standard Nuclear Orientation (Angstroms)
    I     Atom           X                Y                Z
 ----------------------------------------------------------------
    1      O      -1.6876171722    -0.8684127028     0.1335451813
    2      H      -1.4498657048     0.0441847766    -0.0498069795
    3      H      -0.8394721432    -1.3248690487     0.0886185550
 ----------------------------------------------------------------
 Nuclear Repulsion Energy =           9.14855909 hartrees
 There are        5 alpha and        5 beta electrons
 Requested basis set is def2-QZVPPD
 There are 42 shells and 132 basis functions

 Total QAlloc Memory Limit  16000 MB
 Mega-Array Size       188 MB
 MEM_STATIC part       192 MB


                       Distance Matrix (Angstroms)
             O (  1)   H (  2)
   H (  2)  0.960717
   H (  3)  0.964220  1.505341
 
 A cutoff of  1.0D-14 yielded    903 shell pairs
 There are      9017 function pairs (     13005 Cartesian)
 Smallest overlap matrix eigenvalue = 1.38E-04

 Scale SEOQF with 1.000000e-01/1.000000e-01/1.000000e-01

 Standard Electronic Orientation quadrupole field applied
 Nucleus-field energy     =     0.0000000015 hartrees
 Guess from superposition of atomic densities
 Warning:  Energy on first SCF cycle will be non-variational
 SAD guess density has 10.000000 electrons

 -----------------------------------------------------------------------
  General SCF calculation program by
  Eric Jon Sundstrom, Paul Horn, Yuezhi Mao, Dmitri Zuev, Alec White,
  David Stuck, Shaama M.S., Shane Yost, Joonho Lee, David Small,
  Daniel Levine, Susi Lehtola, Hugh Burton, Evgeny Epifanovsky,
  Bang C. Huynh
 -----------------------------------------------------------------------
 Exchange:     0.1670 Hartree-Fock + 1.0000 wB97X-V + LR-HF
 Correlation:  1.0000 wB97X-V
 Using Euler-Maclaurin-Lebedev (99,590) quadrature formula
 Nonlocal Correlation:  VV10 with C = 0.0100 and b = 6.00 and scale = 1.00000
 Grid used for NLC:  SG-1 standard quadrature
Energy prior to optimization (guess energy) = -76.386669179791
Begin Timing: Total SCF Calculation
begin iterations for algorithm: DIIS         
the SCF tolerance is set to 1.00e-07
    1     -76.3866691798      5.70e-03     00000 
    2     -76.3874662476      6.24e-03     00000 
    3     -76.4405495235      2.73e-04     00000 
    4     -76.4406555153      6.90e-05     00000 
    5     -76.4406670125      8.46e-06     00000 
    6     -76.4406673519      1.19e-06     00000 
    7     -76.4406673642      2.35e-07     00000 
    8     -76.4406673646      3.23e-08     00000 Convergence criterion met
Timing for Total SCF: 3.00s (wall), 153.52s (cpu)
Multipole orders to be included
        2
        3
computing dipole RHS
computing quadrupole RHS
total number of RHS in solve_reponses: 8
RHS batch sizes
        8
Beginning Block Conjugate Gradient Iterations. Batch Number: 0
              1      4.77e-01     00000 Conjugate Gradient Iteration
              2      1.42e-01     00000 Conjugate Gradient Iteration
              3      2.53e-02     00000 Conjugate Gradient Iteration
              4      4.26e-03     00000 Conjugate Gradient Iteration
              5      5.63e-04     00000 Conjugate Gradient Iteration
              6      6.96e-05     00000 Conjugate Gradient Iteration
              7      5.13e-06     00000 Conjugate Gradient Iteration
              8      3.17e-07     00000 Conjugate Gradient Iteration
              9      2.51e-08     00000 Conjugate Gradient Iteration
             10      2.38e-09     00000 CG Converged
batch 0 complete
Done Calculating Responses
TESTING ORTHOGONALIZATION OF MULTIPOLE BASIS
Max deviation in metric = 9.49e-13
Multipole virts passed orthogonality test
Virts Per Order
        15
        25
 
 --------------------------------------------------------------
 
                    Orbital Energies (a.u.)
 --------------------------------------------------------------
 
 Alpha MOs
 -- Occupied --
-19.2205  -1.1453  -0.6428  -0.5093  -0.4305
 -- Virtual --
  0.0560   0.0820   0.1066   0.1079   0.1839   0.2040   0.2278   0.2338
  0.2440   0.2812   0.3081   0.3366   0.4069   0.4170   0.4496   0.5074
  0.5159   0.5186   0.5753   0.5889   0.6007   0.7128   0.8381   0.8771
  0.8987   1.0182   1.0587   1.1086   1.1785   1.2068   1.4028   1.4471
  1.5020   1.5216   1.5668   1.6476   1.6831   1.9574   2.0057   2.0900
  2.1275   2.3416   2.3461   2.5278   2.5279   2.5471   2.6428   2.6821
  2.7371   2.7665   2.7775   2.9687   3.2317   3.2880   3.3410   3.5115
  3.7867   3.9678   3.9745   4.0032   4.1623   4.2436   4.3387   4.3410
  4.4740   4.6663   4.8761   4.8846   5.3347   5.4147   5.5302   5.7591
  5.9832   6.0421   6.1546   6.5252   6.5602   6.8359   7.0858   7.2060
  7.3083   7.3316   7.4360   7.4512   7.5239   7.5243   7.7397   7.7675
  7.8497   7.9101   7.9537   7.9670   8.1022   8.1693   8.4072   8.5846
  8.6726   8.8319   8.8418   9.0666   9.2455   9.9493   9.9612  10.3196
 10.3405  10.7669  10.8074  11.0265  11.2012  11.2077  11.3751  11.5723
 11.7886  11.8603  11.8954  11.9384  12.3534  12.9858  13.5811  13.6695
 13.7412  14.1230  14.4663  16.7683  16.8359  48.4303 253.3628
 --------------------------------------------------------------
 
          Ground-State Mulliken Net Atomic Charges

     Atom                 Charge (a.u.)
  ----------------------------------------
      1 O                    -0.407063
      2 H                     0.203270
      3 H                     0.203793
  ----------------------------------------
  Sum of atomic charges =     0.000000

 -----------------------------------------------------------------
                    Cartesian Multipole Moments
 -----------------------------------------------------------------
    Charge (ESU x 10^10)
                 0.0000
    Dipole Moment (Debye)
         X       1.7204      Y       0.7245      Z      -0.3620
       Tot       1.9015
    Quadrupole Moments (Debye-Ang)
        XX     -11.5388     XY      -3.2851     YY      -6.0637
        XZ       0.6451     YZ       0.0039     ZZ      -7.7783
    Octopole Moments (Debye-Ang^2)
       XXX      43.1651    XXY      13.1343    XYY      12.6968
       YYY      14.8089    XXZ      -1.8729    XYZ      -0.1624
       YYZ      -0.5956    XZZ      12.4838    YZZ       6.4561
       ZZZ      -2.7060
    Hexadecapole Moments (Debye-Ang^3)
      XXXX    -134.5760   XXXY     -42.1187   XXYY     -30.7188
      XYYY     -27.7088   YYYY     -32.3604   XXXZ       5.6319
      XXYZ       1.0853   XYYZ       1.1944   YYYZ       1.5788
      XXZZ     -22.7809   XYZZ     -10.3459   YYZZ      -8.1171
      XZZZ       4.3754   YZZZ       2.3050   ZZZZ      -8.3031
 -----------------------------------------------------------------
 Total job time:  8.61s(wall), 521.15s(cpu) 
 Tue Jan  2 15:12:13 2024

        *************************************************************
        *                                                           *
        *  Thank you very much for using Q-Chem.  Have a nice day.  *
        *                                                           *
        *************************************************************


 Done Job For Fragment 2
 calling putenv with: QCSCRATCH=/pscratch/sd/h/heindelj 
 calling putenv with: QCLOCALSCR=/tmp 
 calling putenv with: QCTHREADS=64 
Doing General SCFMI
 Exchange:     0.1670 Hartree-Fock + 1.0000 wB97X-V + LR-HF
 Correlation:  1.0000 wB97X-V
 Using Euler-Maclaurin-Lebedev (99,590) quadrature formula
 Nonlocal Correlation:  VV10 with C = 0.0100 and b = 6.00 and scale = 1.00000
 Grid used for NLC:  SG-1 standard quadrature
performing fock build before subrot guess so that all methods have access
Printing subrot_rss_gen Method Specification:
Occupied Subspace Method is 0
Virtual Subspace Method is 0
Energy of the unrelaxed supersystem initial determinant -229.331179186783
write pseudocanon occs and virts to disk
write pseudocanon orbital energies to disk
Tolerance of ortho_decomp_scf: 1.00e-06
GDM subspace size: 20
Beginning the Orthogonal Decomposition of the Initial Supersystem Wavefunction
    1    -229.2587326084      1.65e-01     ortho_decomp Preconditoned Steepest Descent
    2    -229.2655319005      2.67e-03     ortho_decomp BFGS Step
    3    -229.2655429216      1.89e-04     ortho_decomp BFGS Step
    4    -229.2655429416      5.84e-06     ortho_decomp BFGS Step
    5    -229.2655429416      1.53e-07     ortho_decomp 00000 Convergence criterion met
 Hartree-Fock
 Hartree-Fock
 Hartree-Fock
 Hartree-Fock
Doing General SCFMI
 Exchange:     0.1670 Hartree-Fock + 1.0000 wB97X-V + LR-HF
 Correlation:  1.0000 wB97X-V
 Using Euler-Maclaurin-Lebedev (99,590) quadrature formula
 Nonlocal Correlation:  VV10 with C = 0.0100 and b = 6.00 and scale = 1.00000
 Grid used for NLC:  SG-1 standard quadrature
performing fock build at end of subrot_r(subrot) constructor so that all methods have access
<S^2> of initial wavefunction before polarization iterations 0.0000000000
Beginning iterations for the determination of the polarized wavefunction
Energy prior to optimization (guess energy) = -229.331179186783
Begin Timing: Total SCF Calculation
begin iterations for algorithm: DIIS         
the SCF tolerance is set to 1.00e-07
    1    -229.3311791868      6.55e-04     00000 
    2    -229.3338813569      1.86e-04     00000 
    3    -229.3341060719      9.91e-05     00000 
    4    -229.3341458125      4.21e-05     00000 
    5    -229.3341544941      8.64e-06     00000 
    6    -229.3341553716      2.41e-06     00000 
    7    -229.3341554068      1.42e-06     00000 
    8    -229.3341554142      1.77e-07     00000 
    9    -229.3341554145      4.04e-08     00000 Convergence criterion met
write pseudocanon occs and virts to disk
write pseudocanon orbital energies to disk
Timing for Total SCF: 20.00s (wall), 1040.42s (cpu)
<S^2> of polarized wavefunction after polarization iterations 0.0000000000
relaxing scfmi constraint to allow all rotations in the entire AO span
Doing General SCFMI
 Exchange:     0.1670 Hartree-Fock + 1.0000 wB97X-V + LR-HF
 Correlation:  1.0000 wB97X-V
 Using Euler-Maclaurin-Lebedev (99,590) quadrature formula
 Nonlocal Correlation:  VV10 with C = 0.0100 and b = 6.00 and scale = 1.00000
 Grid used for NLC:  SG-1 standard quadrature
performing fock build at end of subrot_r(subrot) constructor so that all methods have access
<S^2> of polarized wavefunction before ct-allowed iterations 0.0000000000
Beginning iterations for the determination of the CT-Allowed wavefunction
Energy prior to optimization (guess energy) = -229.334155414492
Begin Timing: Total SCF Calculation
begin iterations for algorithm: DIIS         
the SCF tolerance is set to 1.00e-07
    1    -229.3341554145      2.15e-04     00000 
    2    -229.3382471094      3.20e-05     00000 
    3    -229.3384026556      9.78e-06     00000 
    4    -229.3384076048      6.72e-06     00000 
    5    -229.3384100381      4.21e-07     00000 
    6    -229.3384100659      2.09e-07     00000 
    7    -229.3384100686      7.09e-08     00000 Convergence criterion met
write pseudocanon occs and virts to disk
write pseudocanon orbital energies to disk
Timing for Total SCF: 16.00s (wall), 810.62s (cpu)
<S^2> of ct_allowed wavefunction after ct-allowed iterations 0.0000000000

================================
        Results of EDA2         
================================
Basic EDA Quantities
--------------------
Fragment Energies (Ha):
1  -76.4407311176
2  -76.4407711762
3  -76.4406673646
--------------------
  E_prp (kJ/mol) = 0.0000
  E_frz (kJ/mol) = -23.6548
  E_pol (kJ/mol) = -7.8142
  E_vct (kJ/mol) = -11.1707
  E_int (kJ/mol) = -42.6397
--------------------


Decomposition of frozen interaction energy
--------------------
  --------------------
  Orthogonal Frozen Decomposition:
  --------------------
     E_elec   (ELEC)   (kJ/mol) = -126.2148
     E_pauli  (PAULI)  (kJ/mol) = 120.7337
     E_disp   (DISP)   (kJ/mol) = -18.1737
  --------------------
  Classical Frozen Decomposition:
  --------------------
     E_cls_elec  (CLS ELEC)  (kJ/mol) = -64.4855
     E_mod_pauli (MOD PAULI) (kJ/mol) = 59.0044 (FRZ - CLS ELEC - DISP)
     E_disp      (DISP)      (kJ/mol) = -18.1737
  --------------------
--------------------

Simplified EDA Summary (kJ/mol)
--------------------
 PREPARATION      0.0000
 FROZEN           -23.6548 (ELEC + PAULI + DISP)
[ELEC + PAULI = -5.4811, DISP = -18.1737]
 POLARIZATION    -7.8142
 CHARGE TRANSFER -11.1707
 TOTAL           -42.6397     (PRP + FRZ + POL + CT)
--------------------
 
 --------------------------------------------------------------
 
                    Orbital Energies (a.u.)
 --------------------------------------------------------------
 
 Alpha MOs
 -- Occupied --
-19.2628 -19.2134 -19.1788  -1.1891  -1.1400  -1.1054  -0.6917  -0.6498
 -0.6073  -0.5524  -0.5073  -0.4783  -0.4659  -0.4246  -0.3933
 -- Virtual --
  0.0260   0.0575   0.0677   0.0781   0.1017   0.1035   0.1087   0.1237
  0.1322   0.1451   0.1626   0.1838   0.1892   0.2028   0.2088   0.2177
  0.2335   0.2419   0.2457   0.2609   0.2646   0.2782   0.2876   0.2945
  0.3130   0.3247   0.3271   0.3461   0.3522   0.3638   0.3676   0.3733
  0.3917   0.3951   0.4042   0.4272   0.4390   0.4440   0.4676   0.4768
  0.4913   0.5021   0.5109   0.5450   0.5478   0.5613   0.5724   0.5844
  0.5848   0.6077   0.6196   0.6284   0.6357   0.6489   0.6630   0.6842
  0.6890   0.6950   0.7084   0.7163   0.7493   0.7560   0.7666   0.7932
  0.8291   0.8765   0.8833   0.9086   0.9124   0.9468   0.9961   1.0066
  1.0243   1.0423   1.0592   1.0850   1.0922   1.1092   1.1229   1.1490
  1.1681   1.1915   1.1938   1.2432   1.2775   1.3045   1.3210   1.3248
  1.3942   1.4219   1.4377   1.4569   1.4671   1.4971   1.5208   1.5452
  1.5589   1.5964   1.6289   1.6503   1.6562   1.6774   1.6904   1.7087
  1.7388   1.7495   1.7794   1.8102   1.8338   1.8890   1.9122   1.9800
  2.0473   2.0538   2.0974   2.1352   2.1434   2.2106   2.2288   2.2391
  2.2762   2.2863   2.3501   2.3773   2.3964   2.4045   2.4312   2.4532
  2.5047   2.5570   2.5583   2.6023   2.6086   2.6188   2.6359   2.6545
  2.6576   2.6931   2.6964   2.7214   2.7519   2.7640   2.7824   2.7928
  2.8164   2.8431   2.8568   2.8900   2.9221   2.9534   2.9921   3.0017
  3.0550   3.0833   3.1450   3.1529   3.1940   3.3090   3.3308   3.4024
  3.4183   3.4221   3.4526   3.4809   3.5459   3.6467   3.6716   3.7022
  3.8326   3.8372   3.8979   3.9281   4.0004   4.0195   4.0512   4.0648
  4.0878   4.1243   4.1510   4.1610   4.2424   4.2816   4.2901   4.3016
  4.3299   4.3665   4.4001   4.4207   4.4473   4.4926   4.5080   4.5556
  4.6207   4.6338   4.6506   4.6669   4.7521   4.7908   4.8839   4.8973
  4.9845   5.0288   5.1329   5.1941   5.4316   5.5082   5.5188   5.5294
  5.5483   5.5899   5.6474   5.7119   5.7761   5.8080   5.8246   5.8624
  6.0136   6.0180   6.0588   6.0709   6.0877   6.1047   6.1341   6.1596
  6.2238   6.4294   6.4974   6.5717   6.6208   6.6422   6.6851   6.7836
  6.8926   6.9057   7.0926   7.1313   7.1734   7.1945   7.2654   7.3257
  7.3435   7.3880   7.4175   7.4225   7.4410   7.4572   7.4632   7.4832
  7.4988   7.5149   7.5386   7.5503   7.5633   7.5818   7.6108   7.6621
  7.7181   7.7585   7.8075   7.8210   7.8300   7.8428   7.8563   7.8870
  7.9073   7.9215   7.9466   7.9532   7.9587   8.0038   8.0255   8.0424
  8.0645   8.0816   8.1194   8.1369   8.1871   8.2146   8.2276   8.2683
  8.3474   8.4223   8.4386   8.5092   8.5959   8.6480   8.6760   8.6953
  8.7142   8.7475   8.7990   8.8347   8.8442   8.8951   8.9006   8.9179
  8.9851   9.1134   9.1212   9.1255   9.1711   9.2522   9.3525   9.8921
  9.8977   9.9903  10.0006  10.0084  10.0716  10.3317  10.3703  10.3845
 10.4037  10.4169  10.4711  10.7703  10.8449  10.8622  10.8884  10.9210
 10.9462  10.9696  11.0648  11.0856  11.1831  11.2089  11.2460  11.2609
 11.2932  11.3282  11.4031  11.4239  11.4957  11.5647  11.6204  11.6854
 11.8276  11.8370  11.8499  11.8906  11.9102  11.9477  11.9569  11.9745
 11.9791  11.9906  12.0068  12.1171  12.3892  12.4618  12.5061  12.9182
 12.9765  13.0715  13.5779  13.6089  13.6860  13.7429  13.7537  13.7981
 13.8077  13.8657  13.8874  14.1227  14.1720  14.1819  14.5396  14.5842
 14.6340  16.8290  16.8448  16.8755  16.8992  16.9563  17.0054  48.5269
 48.5661  48.6356 253.4748 253.5181 253.6115
 --------------------------------------------------------------
 
          Ground-State Mulliken Net Atomic Charges

     Atom                 Charge (a.u.)
  ----------------------------------------
      1 O                    -0.443389
      2 H                     0.213804
      3 H                     0.216782
      4 O                    -0.472704
      5 H                     0.256352
      6 H                     0.259439
      7 O                    -0.436163
      8 H                     0.192194
      9 H                     0.213684
  ----------------------------------------
  Sum of atomic charges =     0.000000

 -----------------------------------------------------------------
                    Cartesian Multipole Moments
 -----------------------------------------------------------------
    Charge (ESU x 10^10)
                -0.0000
    Dipole Moment (Debye)
         X       2.7775      Y       4.4559      Z       0.4722
       Tot       5.2718
    Quadrupole Moments (Debye-Ang)
        XX     -24.8397     XY      -3.1853     YY     -13.1089
        XZ       3.1481     YZ      -2.6227     ZZ     -18.6958
    Octopole Moments (Debye-Ang^2)
       XXX      19.4917    XXY       5.7162    XYY       4.5503
       YYY      24.9065    XXZ       5.7228    XYZ      -4.4372
       YYZ       2.1913    XZZ       3.6630    YZZ       7.5997
       ZZZ       1.9202
    Hexadecapole Moments (Debye-Ang^3)
      XXXX    -219.2644   XXXY     -30.0689   XXYY     -74.1131
      XYYY      -5.3463   YYYY    -154.2645   XXXZ      19.4074
      XXYZ      -3.0229   XYYZ       5.7427   YYYZ       2.6501
      XXZZ     -39.9460   XYZZ      -2.9012   YYZZ     -27.9584
      XZZZ       7.6732   YZZZ       4.0725   ZZZZ     -23.9715
 -----------------------------------------------------------------
 Total job time:  124.08s(wall), 4947.58s(cpu) 
 Tue Jan  2 15:13:50 2024

        *************************************************************
        *                                                           *
        *  Thank you very much for using Q-Chem.  Have a nice day.  *
        *                                                           *
        *************************************************************



Running Job 2 of 4 w3_aa_wb97xv_qzvppd_eda_mbe.in
qchem w3_aa_wb97xv_qzvppd_eda_mbe.in_251887.1 /tmp/qchem251887/ 0
/global/common/software/nersc/pm-stable/sw/qchem/6.0.0/exe/qcprog.exe_s w3_aa_wb97xv_qzvppd_eda_mbe.in_251887.1 /tmp/qchem251887/
                  Welcome to Q-Chem
     A Quantum Leap Into The Future Of Chemistry


 Q-Chem 6.0, Q-Chem, Inc., Pleasanton, CA (2022)

 License issued to: National Energy Research Scientific Computing Center (site)

 E. Epifanovsky,  A. T. B. Gilbert,  Xintian Feng,  Joonho Lee,  Yuezhi Mao,  
 N. Mardirossian,  P. Pokhilko,  A. White,  M. Wormit,  M. P. Coons,  
 A. L. Dempwolff,  Zhengting Gan,  D. Hait,  P. R. Horn,  L. D. Jacobson,  
 I. Kaliman,  J. Kussmann,  A. W. Lange,  Ka Un Lao,  D. S. Levine,  Jie Liu,  
 S. C. McKenzie,  A. F. Morrison,  K. Nanda,  F. Plasser,  D. R. Rehn,  
 M. L. Vidal,  Zhi-Qiang You,  Ying Zhu,  B. Alam,  B. Albrecht,  
 A. Aldossary,  E. Alguire,  J. H. Andersen,  V. Athavale,  D. Barton,  
 K. Begam,  A. Behn,  N. Bellonzi,  Y. A. Bernard,  E. J. Berquist,  
 H. Burton,  A. Carreras,  K. Carter-Fenk,  Romit Chakraborty,  
 Chandrima Chakravarty,  Junhan Chen,  A. D. Chien,  K. D. Closser,  
 V. Cofer-Shabica,  L. Cunha,  S. Dasgupta,  Jia Deng,  M. de Wergifosse,  
 M. Diedenhofen,  Hainam Do,  S. Ehlert,  Po-Tung Fang,  S. Fatehi,  
 Qingguo Feng,  T. Friedhoff,  B. Ganoe,  J. Gayvert,  Qinghui Ge,  
 G. Gidofalvi,  M. Goldey,  J. Gomes,  C. Gonzalez-Espinoza,  S. Gulania,  
 A. Gunina,  J. A. Gyamfi,  M. W. D. Hanson-Heine,  P. H. P. Harbach,  
 A. W. Hauser,  M. F. Herbst,  M. Hernandez Vera,  M. Hodecker,  
 Z. C. Holden,  S. Houck,  Xunkun Huang,  Kerwin Hui,  B. C. Huynh,  
 K. Ikeda,  M. Ivanov,  Hyunjun Ji,  Zuxin Jin,  Hanjie Jiang,  B. Kaduk,  
 S. Kaehler,  R. Kang,  K. Khistyaev,  Jaehoon Kim,  Yongbin Kim,  
 P. Klunzinger,  Z. Koczor-Benda,  Joong Hoon Koh,  D. Kosenkov,  
 Saikiran Kotaru,  L. Koulias,  T. Kowalczyk,  C. M. Krauter,  K. Kue,  
 A. Kunitsa,  T. Kus,  A. Landau,  K. V. Lawler,  D. Lefrancois,  S. Lehtola,  
 Rain Li,  Shaozhi Li,  Yi-Pei Li,  Jiashu Liang,  M. Liebenthal,  
 Hung-Hsuan Lin,  You-Sheng Lin,  Fenglai Liu,  Kuan-Yu Liu,  
 M. Loipersberger,  A. Luenser,  C. Malbon,  A. Manjanath,  P. Manohar,  
 E. Mansoor,  S. F. Manzer,  Shan-Ping Mao,  A. V. Marenich,  T. Markovich,  
 S. Mason,  F. Matz,  S. A. Maurer,  P. F. McLaughlin,  M. F. S. J. Menger,  
 J.-M. Mewes,  S. A. Mewes,  P. Morgante,  Mohammad Mostafanejad,  
 J. W. Mullinax,  K. J. Oosterbaan,  G. Paran,  V. Parravicini,  
 Alexander C. Paul,  Suranjan K. Paul,  F. Pavosevic,  Zheng Pei,  S. Prager,  
 E. I. Proynov,  E. Ramos,  B. Rana,  A. E. Rask,  A. Rettig,  R. M. Richard,  
 F. Rob,  E. Rossomme,  T. Scheele,  M. Scheurer,  M. Schneider,  
 P. E. Schneider,  N. Sergueev,  S. M. Sharada,  Hengyuan Shen,  
 W. Skomorowski,  D. W. Small,  C. J. Stein,  Yingli Su,  Yu-Chuan Su,  
 E. J. Sundstrom,  Zhen Tao,  J. Thirman,  Hung-Yi Tsai,  T. Tsuchimochi,  
 N. M. Tubman,  C. Utku,  S. P. Veccham,  O. Vydrov,  J. Wenzel,  
 Jonathan Wong,  J. Witte,  A. Yamada,  Chou-Hsun Yang,  Kun Yao,  
 S. Yeganeh,  S. R. Yost,  A. Zech,  F. Zeller,  Igor Ying Zhang,  
 Xing Zhang,  Yu Zhang,  D. Zuev,  A. Aspuru-Guzik,  A. T. Bell,  
 N. A. Besley,  K. B. Bravaya,  B. R. Brooks,  D. Casanova,  Jeng-Da Chai,  
 Hsing-Ta Chen,  S. Coriani,  C. J. Cramer,  A. E. DePrince, III,  
 R. A. DiStasio Jr.,  A. Dreuw,  B. D. Dunietz,  T. R. Furlani,  
 W. A. Goddard III,  S. Grimme,  S. Hammes-Schiffer,  T. Head-Gordon,  
 W. J. Hehre,  Chao-Ping Hsu,  T.-C. Jagau,  Yousung Jung,  A. Klamt,  
 Jing Kong,  D. S. Lambrecht,  Xiangyuan Li,  WanZhen Liang,  N. J. Mayhall,  
 C. W. McCurdy,  J. B. Neaton,  T. Neudecker,  C. Ochsenfeld,  
 J. A. Parkhill,  R. Peverati,  V. A. Rassolov,  Haisheng Ren,  Yihan Shao,  
 L. V. Slipchenko,  R. P. Steele,  J. E. Subotnik,  A. J. W. Thom,  
 A. Tkatchenko,  D. G. Truhlar,  T. Van Voorhis,  Fan Wang,  
 T. A. Wesolowski,  K. B. Whaley,  H. L. Woodcock III,  P. M. Zimmerman,  
 S. Faraji,  P. M. W. Gill,  M. Head-Gordon,  J. M. Herbert,  A. I. Krylov

 Contributors to earlier versions of Q-Chem not listed above: 
 R. D. Adamson,  B. Austin,  R. Baer,  J. Baker,  G. J. O. Beran,  
 K. Brandhorst,  S. T. Brown,  E. F. C. Byrd,  Arup K. Chakraborty,  
 G. K. L. Chan,  Chun-Min Chang,  Yunqing Chen,  C.-L. Cheng,  
 Siu Hung Chien,  D. M. Chipman,  D. L. Crittenden,  H. Dachsel,  
 R. J. Doerksen,  A. D. Dutoi,  R. G. Edgar,  J. Fosso-Tande,  
 L. Fusti-Molnar,  D. Ghosh,  A. Ghysels,  A. Golubeva-Zadorozhnaya,  
 J. Gonthier,  M. S. Gordon,  S. R. Gwaltney,  G. Hawkins,  J. E. Herr,  
 A. Heyden,  S. Hirata,  E. G. Hohenstein,  G. Kedziora,  F. J. Keil,  
 C. Kelley,  Jihan Kim,  R. A. King,  R. Z. Khaliullin,  P. P. Korambath,  
 W. Kurlancheek,  A. Laurent,  A. M. Lee,  M. S. Lee,  S. V. Levchenko,  
 Ching Yeh Lin,  D. Liotard,  E. Livshits,  R. C. Lochan,  I. Lotan,  
 L. A. Martinez-Martinez,  P. E. Maslen,  N. Nair,  D. P. O'Neill,  
 D. Neuhauser,  E. Neuscamman,  C. M. Oana,  R. Olivares-Amaya,  R. Olson,  
 T. M. Perrine,  B. Peters,  P. A. Pieniazek,  A. Prociuk,  Y. M. Rhee,  
 J. Ritchie,  M. A. Rohrdanz,  E. Rosta,  N. J. Russ,  H. F. Schaefer III,  
 M. W. Schmidt,  N. E. Schultz,  S. Sharma,  N. Shenvi,  C. D. Sherrill,  
 A. C. Simmonett,  A. Sodt,  T. Stein,  D. Stuck,  K. S. Thanthiriwatte,  
 V. Vanovschi,  L. Vogt,  Tao Wang,  A. Warshel,  M. A. Watson,  
 C. F. Williams,  Q. Wu,  X. Xu,  Jun Yang,  W. Zhang,  Yan Zhao

   Please cite Q-Chem as follows:
  "Software for the frontiers of quantum chemistry:
   An overview of developments in the Q-Chem 5 package"
   J. Chem. Phys. 155, 084801 (2021)
   https://doi.org/10.1063/5.0055522 (open access)

 Q-Chem 6.0.0 for Intel X86 EM64T Linux

 Parts of Q-Chem use Armadillo 9.900.5 (Nocturnal Misbehaviour).
 http://arma.sourceforge.net/

 Q-Chem begins on Tue Jan  2 15:13:50 2024  

 Host: login27
0

     Scratch files written to /tmp/qchem251887//
 Jul222 |scratch|qcdevops|jenkins|workspace|build_RNUM 7470   
 Processing $rem in /global/common/software/nersc/pm-stable/sw/qchem/6.0.0/config/preferences:
 Processing $rem in /global/homes/h/heindelj/.qchemrc:

 Q-Chem warning in module libgen/rem_setup.C, line 3291:

 Neither GIA nor STOLL is specified by user. Use STOLL as the default


 Checking the input file for inconsistencies... 	...done.

--------------------------------------------------------------
User input:
--------------------------------------------------------------
$molecule
0 1
--
0 1
O 1.2948975333 -1.0824655356 -0.1226659383
H 1.1339298150 -0.1308894691 -0.0915801347
H 1.9124838417 -1.2673720503 0.5869372358
--
0 1
O 0.1733378377 1.6306190187 -0.2566846622
H 0.2108295927 2.1057801602 -1.0902909804
H 0.1134753998 2.3024448511 0.4265087231
$end

$rem
JOBTYPE EDA
EDA2 1
method wB97X-V
BASIS def2-qzvppd
XC_GRID 000099000590
NL_GRID 1
UNRESTRICTED FALSE
MAX_SCF_CYCLES 200
SYMMETRY FALSE
SYM_IGNORE TRUE
mem_total  16000
BASIS_LIN_DEP_THRESH 8
THRESH 14
SCF_CONVERGENCE 7
SCF_PRINT_FRGM TRUE
$end

--------------------------------------------------------------
 ----------------------------------------------------------------
             Standard Nuclear Orientation (Angstroms)
    I     Atom           X                Y                Z
 ----------------------------------------------------------------
    1      O       1.2948975333    -1.0824655356    -0.1226659383
    2      H       1.1339298150    -0.1308894691    -0.0915801347
    3      H       1.9124838417    -1.2673720503     0.5869372358
    4      O       0.1733378377     1.6306190187    -0.2566846622
    5      H       0.2108295927     2.1057801602    -1.0902909804
    6      H       0.1134753998     2.3024448511     0.4265087231
 ----------------------------------------------------------------
 Nuclear Repulsion Energy =          36.18503381 hartrees
 There are       10 alpha and       10 beta electrons
 Requested basis set is def2-QZVPPD
 There are 84 shells and 264 basis functions

 Total QAlloc Memory Limit  16000 MB
 Mega-Array Size       188 MB
 MEM_STATIC part       192 MB


                       Distance Matrix (Angstroms)
             O (  1)   H (  2)   H (  3)   O (  4)   H (  5)
   H (  2)  0.965595
   H (  3)  0.958718  1.535619
   O (  4)  2.938824  2.013184  3.483487
   H (  5)  3.503771  2.617676  4.133628  0.960252
   H (  6)  3.626978  2.689026  4.000720  0.960045  1.532591
 
 A cutoff of  1.0D-14 yielded   3342 shell pairs
 There are     32972 function pairs (     47095 Cartesian)
 Smallest overlap matrix eigenvalue = 7.44E-05

 Scale SEOQF with 1.000000e-01/1.000000e-01/1.000000e-01

 Standard Electronic Orientation quadrupole field applied
 Nucleus-field energy     =     0.0000000034 hartrees

 -----------------------------------------------------------------------
  General SCF calculation program by
  Eric Jon Sundstrom, Paul Horn, Yuezhi Mao, Dmitri Zuev, Alec White,
  David Stuck, Shaama M.S., Shane Yost, Joonho Lee, David Small,
  Daniel Levine, Susi Lehtola, Hugh Burton, Evgeny Epifanovsky,
  Bang C. Huynh
 -----------------------------------------------------------------------
================================================================
                 ALMO-EDA with the EDA2 driver                  
================================================================
 The second-generation ALMO-EDA (for DFT):                      
 P. R. Horn, Y. Mao and M. Head-Gordon, PCCP, 18, 23067 (2016)  
 Y. Mao et al. Annu. Rev. Phys. Chem. 72, 641 (2021)            
 Decomposition of the frozen energy:                            
 P. R. Horn, Y. Mao and M. Head-Gordon, JCP, 144, 114107 (2016) 
 FERF model for polarization:                                   
 P. R. Horn and M. Head-Gordon, JCP, 143, 114111 (2015)         
================================================================
 Using eda2 option set 1
 Option set summary: Frozen orbital wavefunction, initial wavefunction decomposition, and nDQ polarization.
--------------------------------
Printing EDA Options
--------------------------------
eda_child_super_basis      0
fragmo_guess_mode          0
child_mp                   1
child_mp_orders            232
cls_elec                   1
cls_disp                   0
scfmi_mode                 1
scfmi_occs                 0
scfmi_virts                0
frz_relax                  0
frz_relax_method           0
dc_pen_start               0
dc_pen_conv                0
dc_pen_increment           0
dc_pen_steps               0
dc_pen_thresh_factor       0
dc_pen_pre_newton_thresh   0
frz_ortho_decomp           1
frz_ortho_decomp_conv      6
plot_mo_ortho_frz          0
frgm_method                2
scfmi_freeze_ss            0
separate_rehyb             0
plot_diff_den              0
eda_nocv                   0
eda_vct_relax              1
disp_free_x                0
disp_free_c                0
eda_bsse                   0
eda_pct_a                  0
eda_covp                   0
--------------------------------
 Attempting to make child job directory: /tmp/qchem251887//Frg1/
 Failed to make child job directory:     /tmp/qchem251887//Frg1/
 Attempting to make child job directory: /tmp/qchem251887//Frg2/
 Failed to make child job directory:     /tmp/qchem251887//Frg2/
 Creating input file /tmp/qchem251887/Frg1.input
 using default PutDataFrgm: nothing
 calling putenv with: QCSCRATCH=/tmp/qchem251887/ 
 calling putenv with: QCLOCALSCR=/tmp/qchem251887/ 
 Spawning Job For Fragment 0
                  Welcome to Q-Chem
     A Quantum Leap Into The Future Of Chemistry


 Q-Chem 6.0, Q-Chem, Inc., Pleasanton, CA (2022)

 License issued to: National Energy Research Scientific Computing Center (site)

 E. Epifanovsky,  A. T. B. Gilbert,  Xintian Feng,  Joonho Lee,  Yuezhi Mao,  
 N. Mardirossian,  P. Pokhilko,  A. White,  M. Wormit,  M. P. Coons,  
 A. L. Dempwolff,  Zhengting Gan,  D. Hait,  P. R. Horn,  L. D. Jacobson,  
 I. Kaliman,  J. Kussmann,  A. W. Lange,  Ka Un Lao,  D. S. Levine,  Jie Liu,  
 S. C. McKenzie,  A. F. Morrison,  K. Nanda,  F. Plasser,  D. R. Rehn,  
 M. L. Vidal,  Zhi-Qiang You,  Ying Zhu,  B. Alam,  B. Albrecht,  
 A. Aldossary,  E. Alguire,  J. H. Andersen,  V. Athavale,  D. Barton,  
 K. Begam,  A. Behn,  N. Bellonzi,  Y. A. Bernard,  E. J. Berquist,  
 H. Burton,  A. Carreras,  K. Carter-Fenk,  Romit Chakraborty,  
 Chandrima Chakravarty,  Junhan Chen,  A. D. Chien,  K. D. Closser,  
 V. Cofer-Shabica,  L. Cunha,  S. Dasgupta,  Jia Deng,  M. de Wergifosse,  
 M. Diedenhofen,  Hainam Do,  S. Ehlert,  Po-Tung Fang,  S. Fatehi,  
 Qingguo Feng,  T. Friedhoff,  B. Ganoe,  J. Gayvert,  Qinghui Ge,  
 G. Gidofalvi,  M. Goldey,  J. Gomes,  C. Gonzalez-Espinoza,  S. Gulania,  
 A. Gunina,  J. A. Gyamfi,  M. W. D. Hanson-Heine,  P. H. P. Harbach,  
 A. W. Hauser,  M. F. Herbst,  M. Hernandez Vera,  M. Hodecker,  
[...]
 L. Fusti-Molnar,  D. Ghosh,  A. Ghysels,  A. Golubeva-Zadorozhnaya,  
 J. Gonthier,  M. S. Gordon,  S. R. Gwaltney,  G. Hawkins,  J. E. Herr,  
 A. Heyden,  S. Hirata,  E. G. Hohenstein,  G. Kedziora,  F. J. Keil,  
 C. Kelley,  Jihan Kim,  R. A. King,  R. Z. Khaliullin,  P. P. Korambath,  
 W. Kurlancheek,  A. Laurent,  A. M. Lee,  M. S. Lee,  S. V. Levchenko,  
 Ching Yeh Lin,  D. Liotard,  E. Livshits,  R. C. Lochan,  I. Lotan,  
 L. A. Martinez-Martinez,  P. E. Maslen,  N. Nair,  D. P. O'Neill,  
 D. Neuhauser,  E. Neuscamman,  C. M. Oana,  R. Olivares-Amaya,  R. Olson,  
 T. M. Perrine,  B. Peters,  P. A. Pieniazek,  A. Prociuk,  Y. M. Rhee,  
 J. Ritchie,  M. A. Rohrdanz,  E. Rosta,  N. J. Russ,  H. F. Schaefer III,  
 M. W. Schmidt,  N. E. Schultz,  S. Sharma,  N. Shenvi,  C. D. Sherrill,  
 A. C. Simmonett,  A. Sodt,  T. Stein,  D. Stuck,  K. S. Thanthiriwatte,  
 V. Vanovschi,  L. Vogt,  Tao Wang,  A. Warshel,  M. A. Watson,  
 C. F. Williams,  Q. Wu,  X. Xu,  Jun Yang,  W. Zhang,  Yan Zhao

   Please cite Q-Chem as follows:
  "Software for the frontiers of quantum chemistry:
   An overview of developments in the Q-Chem 5 package"
   J. Chem. Phys. 155, 084801 (2021)
   https://doi.org/10.1063/5.0055522 (open access)

 Q-Chem 6.0.0 for Intel X86 EM64T Linux

 Parts of Q-Chem use Armadillo 9.900.5 (Nocturnal Misbehaviour).
 http://arma.sourceforge.net/

 Q-Chem begins on Tue Jan  2 15:15:28 2024  

 Host: login27
0

     Scratch files written to /tmp/qchem251887//Frg2//
 Jul222 |scratch|qcdevops|jenkins|workspace|build_RNUM 7470   
 Processing $rem in /global/common/software/nersc/pm-stable/sw/qchem/6.0.0/config/preferences:
 Processing $rem in /global/homes/h/heindelj/.qchemrc:

 Checking the input file for inconsistencies... 	...done.

--------------------------------------------------------------
User input:
--------------------------------------------------------------
$molecule
0 1
 8	-1.6876171722	-0.8684127028	0.1335451813
 1	-1.4498657048	0.0441847766	-0.0498069795
 1	-0.8394721432	-1.3248690487	0.0886185550
$end
$rem
EDA2		1
METHOD		WB97X-V
BASIS		DEF2-QZVPPD
XC_GRID		000099000590
NL_GRID		1
UNRESTRICTED		FALSE
MAX_SCF_CYCLES		200
SYMMETRY		FALSE
SYM_IGNORE		TRUE
BASIS_LIN_DEP_THRESH		8
THRESH		14
SCF_CONVERGENCE		7
SCF_PRINT_FRGM		TRUE
!required keywords
JOBTYPE		SP
SYM_IGNORE		TRUE
SUBSYSTEM		TRUE
CHILD_INSTRUCTION		2
GEN_SCFMAN		TRUE
SYM_IGNORE		TRUE
SCF_CONVERGENCE		7
MEM_STATIC		192
MEM_TOTAL		16000
PURECART		1111111
FRGM_METHOD		FALSE
CHILD_MP		1
CHILD_MP_ORDERS		232
EDA2		FALSE
FRZ_RELAX		0
FRZ_RELAX_METHOD		0
EDA_CLS_ELEC		1
EDA_CLS_DISP		0
FRZ_ORTHO_DECOMP		1
ECP		0
$end
--------------------------------------------------------------
 ----------------------------------------------------------------
             Standard Nuclear Orientation (Angstroms)
    I     Atom           X                Y                Z
 ----------------------------------------------------------------
    1      O      -1.6876171722    -0.8684127028     0.1335451813
    2      H      -1.4498657048     0.0441847766    -0.0498069795
    3      H      -0.8394721432    -1.3248690487     0.0886185550
 ----------------------------------------------------------------
 Nuclear Repulsion Energy =           9.14855909 hartrees
 There are        5 alpha and        5 beta electrons
 Requested basis set is def2-QZVPPD
 There are 42 shells and 132 basis functions

 Total QAlloc Memory Limit  16000 MB
 Mega-Array Size       188 MB
 MEM_STATIC part       192 MB


                       Distance Matrix (Angstroms)
             O (  1)   H (  2)
   H (  2)  0.960717
   H (  3)  0.964220  1.505341
 
 A cutoff of  1.0D-14 yielded    903 shell pairs
 There are      9017 function pairs (     13005 Cartesian)
 Smallest overlap matrix eigenvalue = 1.38E-04

 Scale SEOQF with 1.000000e-01/1.000000e-01/1.000000e-01

 Standard Electronic Orientation quadrupole field applied
 Nucleus-field energy     =     0.0000000015 hartrees
 Guess from superposition of atomic densities
 Warning:  Energy on first SCF cycle will be non-variational
 SAD guess density has 10.000000 electrons

 -----------------------------------------------------------------------
  General SCF calculation program by
  Eric Jon Sundstrom, Paul Horn, Yuezhi Mao, Dmitri Zuev, Alec White,
  David Stuck, Shaama M.S., Shane Yost, Joonho Lee, David Small,
  Daniel Levine, Susi Lehtola, Hugh Burton, Evgeny Epifanovsky,
  Bang C. Huynh
 -----------------------------------------------------------------------
 Exchange:     0.1670 Hartree-Fock + 1.0000 wB97X-V + LR-HF
 Correlation:  1.0000 wB97X-V
 Using Euler-Maclaurin-Lebedev (99,590) quadrature formula
 Nonlocal Correlation:  VV10 with C = 0.0100 and b = 6.00 and scale = 1.00000
 Grid used for NLC:  SG-1 standard quadrature
Energy prior to optimization (guess energy) = -76.386669179791
Begin Timing: Total SCF Calculation
begin iterations for algorithm: DIIS         
the SCF tolerance is set to 1.00e-07
    1     -76.3866691798      5.70e-03     00000 
    2     -76.3874662476      6.24e-03     00000 
    3     -76.4405495235      2.73e-04     00000 
    4     -76.4406555153      6.90e-05     00000 
    5     -76.4406670125      8.46e-06     00000 
    6     -76.4406673519      1.19e-06     00000 
    7     -76.4406673642      2.35e-07     00000 
    8     -76.4406673646      3.23e-08     00000 Convergence criterion met
Timing for Total SCF: 3.00s (wall), 145.48s (cpu)
Multipole orders to be included
        2
        3
computing dipole RHS
computing quadrupole RHS
total number of RHS in solve_reponses: 8
RHS batch sizes
        8
Beginning Block Conjugate Gradient Iterations. Batch Number: 0
              1      4.77e-01     00000 Conjugate Gradient Iteration
              2      1.42e-01     00000 Conjugate Gradient Iteration
              3      2.53e-02     00000 Conjugate Gradient Iteration
              4      4.26e-03     00000 Conjugate Gradient Iteration
              5      5.63e-04     00000 Conjugate Gradient Iteration
              6      6.96e-05     00000 Conjugate Gradient Iteration
              7      5.13e-06     00000 Conjugate Gradient Iteration
              8      3.17e-07     00000 Conjugate Gradient Iteration
              9      2.51e-08     00000 Conjugate Gradient Iteration
             10      2.38e-09     00000 CG Converged
batch 0 complete
Done Calculating Responses
TESTING ORTHOGONALIZATION OF MULTIPOLE BASIS
Max deviation in metric = 1.08e-12
Multipole virts passed orthogonality test
Virts Per Order
        15
        25
 
 --------------------------------------------------------------
 
                    Orbital Energies (a.u.)
 --------------------------------------------------------------
 
 Alpha MOs
 -- Occupied --
-19.2205  -1.1453  -0.6428  -0.5093  -0.4305
 -- Virtual --
  0.0560   0.0820   0.1066   0.1079   0.1839   0.2040   0.2278   0.2338
  0.2440   0.2812   0.3081   0.3366   0.4069   0.4170   0.4496   0.5074
  0.5159   0.5186   0.5753   0.5889   0.6007   0.7128   0.8381   0.8771
  0.8987   1.0182   1.0587   1.1086   1.1785   1.2068   1.4028   1.4471
  1.5020   1.5216   1.5668   1.6476   1.6831   1.9574   2.0057   2.0900
  2.1275   2.3416   2.3461   2.5278   2.5279   2.5471   2.6428   2.6821
  2.7371   2.7665   2.7775   2.9687   3.2317   3.2880   3.3410   3.5115
  3.7867   3.9678   3.9745   4.0032   4.1623   4.2436   4.3387   4.3410
  4.4740   4.6663   4.8761   4.8846   5.3347   5.4147   5.5302   5.7591
  5.9832   6.0421   6.1546   6.5252   6.5602   6.8359   7.0858   7.2060
  7.3083   7.3316   7.4360   7.4512   7.5239   7.5243   7.7397   7.7675
  7.8497   7.9101   7.9537   7.9670   8.1022   8.1693   8.4072   8.5846
  8.6726   8.8319   8.8418   9.0666   9.2455   9.9493   9.9612  10.3196
 10.3405  10.7669  10.8074  11.0265  11.2012  11.2077  11.3751  11.5723
 11.7886  11.8603  11.8954  11.9384  12.3534  12.9858  13.5811  13.6695
 13.7412  14.1230  14.4663  16.7683  16.8359  48.4303 253.3628
 --------------------------------------------------------------
 
          Ground-State Mulliken Net Atomic Charges

     Atom                 Charge (a.u.)
  ----------------------------------------
      1 O                    -0.407063
      2 H                     0.203270
      3 H                     0.203793
  ----------------------------------------
  Sum of atomic charges =     0.000000

 -----------------------------------------------------------------
                    Cartesian Multipole Moments
 -----------------------------------------------------------------
    Charge (ESU x 10^10)
                 0.0000
    Dipole Moment (Debye)
         X       1.7204      Y       0.7245      Z      -0.3620
       Tot       1.9015
    Quadrupole Moments (Debye-Ang)
        XX     -11.5388     XY      -3.2851     YY      -6.0637
        XZ       0.6451     YZ       0.0039     ZZ      -7.7783
    Octopole Moments (Debye-Ang^2)
       XXX      43.1651    XXY      13.1343    XYY      12.6968
       YYY      14.8089    XXZ      -1.8729    XYZ      -0.1624
       YYZ      -0.5956    XZZ      12.4838    YZZ       6.4561
       ZZZ      -2.7060
    Hexadecapole Moments (Debye-Ang^3)
      XXXX    -134.5760   XXXY     -42.1187   XXYY     -30.7188
      XYYY     -27.7088   YYYY     -32.3604   XXXZ       5.6319
      XXYZ       1.0853   XYYZ       1.1944   YYYZ       1.5788
      XXZZ     -22.7809   XYZZ     -10.3459   YYZZ      -8.1171
      XZZZ       4.3754   YZZZ       2.3050   ZZZZ      -8.3031
 -----------------------------------------------------------------
 Total job time:  7.86s(wall), 473.12s(cpu) 
 Tue Jan  2 15:15:36 2024

        *************************************************************
        *                                                           *
        *  Thank you very much for using Q-Chem.  Have a nice day.  *
        *                                                           *
        *************************************************************


 Done Job For Fragment 1
 calling putenv with: QCSCRATCH=/pscratch/sd/h/heindelj 
 calling putenv with: QCLOCALSCR=/tmp 
 calling putenv with: QCTHREADS=64 
Doing General SCFMI
 Exchange:     0.1670 Hartree-Fock + 1.0000 wB97X-V + LR-HF
 Correlation:  1.0000 wB97X-V
 Using Euler-Maclaurin-Lebedev (99,590) quadrature formula
 Nonlocal Correlation:  VV10 with C = 0.0100 and b = 6.00 and scale = 1.00000
 Grid used for NLC:  SG-1 standard quadrature
performing fock build before subrot guess so that all methods have access
Printing subrot_rss_gen Method Specification:
Occupied Subspace Method is 0
Virtual Subspace Method is 0
Energy of the unrelaxed supersystem initial determinant -152.885998114213
write pseudocanon occs and virts to disk
write pseudocanon orbital energies to disk
Tolerance of ortho_decomp_scf: 1.00e-06
GDM subspace size: 20
Beginning the Orthogonal Decomposition of the Initial Supersystem Wavefunction
    1    -152.8661200617      1.38e-01     ortho_decomp Preconditoned Steepest Descent
    2    -152.8676977996      2.12e-03     ortho_decomp BFGS Step
    3    -152.8677000828      1.42e-04     ortho_decomp BFGS Step
    4    -152.8677000866      4.13e-06     ortho_decomp BFGS Step
    5    -152.8677000866      1.02e-07     ortho_decomp 00000 Convergence criterion met
 Hartree-Fock
 Hartree-Fock
 Hartree-Fock
Doing General SCFMI
 Exchange:     0.1670 Hartree-Fock + 1.0000 wB97X-V + LR-HF
 Correlation:  1.0000 wB97X-V
 Using Euler-Maclaurin-Lebedev (99,590) quadrature formula
 Nonlocal Correlation:  VV10 with C = 0.0100 and b = 6.00 and scale = 1.00000
 Grid used for NLC:  SG-1 standard quadrature
performing fock build at end of subrot_r(subrot) constructor so that all methods have access
<S^2> of initial wavefunction before polarization iterations 0.0000000000
Beginning iterations for the determination of the polarized wavefunction
Energy prior to optimization (guess energy) = -152.885998114213
Begin Timing: Total SCF Calculation
begin iterations for algorithm: DIIS         
the SCF tolerance is set to 1.00e-07
    1    -152.8859981142      3.99e-04     00000 
    2    -152.8867113398      1.02e-04     00000 
    3    -152.8867724548      3.20e-05     00000 
    4    -152.8867795563      8.89e-06     00000 
    5    -152.8867801179      5.34e-06     00000 
    6    -152.8867801800      1.05e-06     00000 
    7    -152.8867801850      1.37e-07     00000 
    8    -152.8867801851      9.17e-08     00000 Convergence criterion met
write pseudocanon occs and virts to disk
write pseudocanon orbital energies to disk
Timing for Total SCF: 5.00s (wall), 343.26s (cpu)
<S^2> of polarized wavefunction after polarization iterations 0.0000000000
relaxing scfmi constraint to allow all rotations in the entire AO span
Doing General SCFMI
 Exchange:     0.1670 Hartree-Fock + 1.0000 wB97X-V + LR-HF
 Correlation:  1.0000 wB97X-V
 Using Euler-Maclaurin-Lebedev (99,590) quadrature formula
 Nonlocal Correlation:  VV10 with C = 0.0100 and b = 6.00 and scale = 1.00000
 Grid used for NLC:  SG-1 standard quadrature
performing fock build at end of subrot_r(subrot) constructor so that all methods have access
<S^2> of polarized wavefunction before ct-allowed iterations 0.0000000000
Beginning iterations for the determination of the CT-Allowed wavefunction
Energy prior to optimization (guess energy) = -152.886780185081
Begin Timing: Total SCF Calculation
begin iterations for algorithm: DIIS         
the SCF tolerance is set to 1.00e-07
    1    -152.8867801851      1.43e-04     00000 
    2    -152.8876374184      2.13e-05     00000 
    3    -152.8876710982      5.48e-06     00000 
    4    -152.8876718996      4.41e-06     00000 
    5    -152.8876723512      2.81e-07     00000 
    6    -152.8876723569      6.79e-08     00000 Convergence criterion met
write pseudocanon occs and virts to disk
write pseudocanon orbital energies to disk
Timing for Total SCF: 4.00s (wall), 250.68s (cpu)
<S^2> of ct_allowed wavefunction after ct-allowed iterations 0.0000000000

================================
        Results of EDA2         
================================
Basic EDA Quantities
--------------------
Fragment Energies (Ha):
1  -76.4407711762
2  -76.4406673646
--------------------
  E_prp (kJ/mol) = -0.0000
  E_frz (kJ/mol) = -11.9713
  E_pol (kJ/mol) = -2.0534
  E_vct (kJ/mol) = -2.3424
  E_int (kJ/mol) = -16.3671
--------------------


Decomposition of frozen interaction energy
--------------------
  --------------------
  Orthogonal Frozen Decomposition:
  --------------------
     E_elec   (ELEC)   (kJ/mol) = -35.8850
     E_pauli  (PAULI)  (kJ/mol) = 29.0009
     E_disp   (DISP)   (kJ/mol) = -5.0873
  --------------------
  Classical Frozen Decomposition:
  --------------------
     E_cls_elec  (CLS ELEC)  (kJ/mol) = -19.7334
     E_mod_pauli (MOD PAULI) (kJ/mol) = 12.8493 (FRZ - CLS ELEC - DISP)
     E_disp      (DISP)      (kJ/mol) = -5.0873
  --------------------
--------------------

Simplified EDA Summary (kJ/mol)
--------------------
 PREPARATION      -0.0000
 FROZEN           -11.9713 (ELEC + PAULI + DISP)
[ELEC + PAULI = -6.8840, DISP = -5.0873]
 POLARIZATION    -2.0534
 CHARGE TRANSFER -2.3424
 TOTAL           -16.3671     (PRP + FRZ + POL + CT)
--------------------
 
 --------------------------------------------------------------
 
                    Orbital Energies (a.u.)
 --------------------------------------------------------------
 
 Alpha MOs
 -- Occupied --
-19.2413 -19.1954  -1.1667  -1.1209  -0.6706  -0.6201  -0.5319  -0.4844
 -0.4518  -0.4080
 -- Virtual --
  0.0390   0.0735   0.0780   0.0838   0.1116   0.1222   0.1253   0.1626
  0.1828   0.2001   0.2120   0.2200   0.2388   0.2447   0.2514   0.2652
  0.2717   0.2858   0.3083   0.3254   0.3490   0.3615   0.3755   0.3990
  0.4076   0.4233   0.4392   0.4704   0.4767   0.5110   0.5250   0.5286
  0.5468   0.5682   0.5743   0.5886   0.5955   0.6276   0.6696   0.6871
  0.6941   0.6982   0.7371   0.7563   0.8590   0.8962   0.9002   0.9342
  0.9664   1.0039   1.0447   1.0624   1.0801   1.1111   1.1430   1.1633
  1.2080   1.2401   1.2767   1.3169   1.4168   1.4575   1.4701   1.5026
  1.5139   1.5594   1.5853   1.5963   1.6307   1.6597   1.6739   1.7212
  1.7518   1.8079   1.9845   2.0094   2.0241   2.0965   2.1021   2.1744
  2.2039   2.2448   2.3368   2.3696   2.3879   2.4718   2.5079   2.5503
  2.5796   2.5867   2.5939   2.6258   2.6710   2.6821   2.6921   2.7308
  2.7573   2.7891   2.8005   2.8347   2.8971   2.9446   3.0132   3.0359
  3.1814   3.2399   3.3318   3.3601   3.3922   3.4098   3.5706   3.6073
  3.7949   3.8186   3.9473   3.9528   3.9985   4.0141   4.0882   4.1235
  4.1659   4.1973   4.2760   4.2933   4.3585   4.3881   4.4083   4.4524
  4.4759   4.6267   4.6485   4.7139   4.8534   4.8866   4.9184   5.0647
  5.3951   5.4419   5.4727   5.5123   5.5263   5.6422   5.7881   5.7953
  5.9823   6.0337   6.0571   6.0811   6.1059   6.1894   6.4433   6.5533
  6.5990   6.6331   6.7995   6.8674   7.1151   7.1374   7.1949   7.2544
  7.3349   7.3640   7.3788   7.3889   7.4450   7.4486   7.4928   7.5004
  7.5187   7.5313   7.5745   7.6745   7.7743   7.8031   7.8145   7.8333
  7.8726   7.8931   7.9203   7.9529   7.9683   7.9897   8.0091   8.0702
  8.0877   8.1571   8.1681   8.2594   8.4361   8.4709   8.6197   8.6435
  8.6886   8.7121   8.8407   8.8529   8.8796   8.9150   9.0965   9.1179
  9.1306   9.2916   9.8716   9.9162   9.9892  10.0225  10.3207  10.3677
 10.3691  10.4014  10.7642  10.8123  10.8639  10.8698  10.9912  11.0585
 11.1879  11.2215  11.2372  11.2549  11.3927  11.4062  11.5627  11.6245
 11.8147  11.8260  11.8792  11.9194  11.9206  11.9419  11.9642  11.9666
 12.3448  12.4260  12.9326  13.0295  13.5855  13.6265  13.7074  13.7316
 13.7747  13.7995  14.1391  14.1549  14.5050  14.5282  16.8083  16.8114
 16.8302  16.9307  48.4597  48.5202 253.3960 253.4709
 --------------------------------------------------------------
 
          Ground-State Mulliken Net Atomic Charges

     Atom                 Charge (a.u.)
  ----------------------------------------
      1 O                    -0.436792
      2 H                     0.226610
      3 H                     0.226899
      4 O                    -0.433718
      5 H                     0.206564
      6 H                     0.210438
  ----------------------------------------
  Sum of atomic charges =     0.000000

 -----------------------------------------------------------------
                    Cartesian Multipole Moments
 -----------------------------------------------------------------
    Charge (ESU x 10^10)
                -0.0000
    Dipole Moment (Debye)
         X       1.9347      Y       2.9060      Z      -0.6451
       Tot       3.5502
    Quadrupole Moments (Debye-Ang)
        XX     -19.6912     XY      -3.2321     YY      -5.7644
        XZ       0.4288     YZ      -0.6803     ZZ     -12.0663
    Octopole Moments (Debye-Ang^2)
       XXX      40.5297    XXY       0.6689    XYY      13.1680
       YYY       1.0469    XXZ       0.0112    XYZ      -0.7703
       YYZ      -0.3877    XZZ      12.0721    YZZ       0.5349
       ZZZ       0.2147
    Hexadecapole Moments (Debye-Ang^3)
      XXXX    -146.7415   XXXY     -50.2865   XXYY     -56.8912
      XYYY     -31.3656   YYYY    -107.7294   XXXZ       6.9029
      XXYZ       4.5387   XYYZ       0.4029   YYYZ       7.9378
      XXZZ     -26.4505   XYZZ     -11.3198   YYZZ     -19.1665
      XZZZ       4.8127   YZZZ       6.4484   ZZZZ     -16.2248
 -----------------------------------------------------------------
 Total job time:  41.20s(wall), 1551.70s(cpu) 
 Tue Jan  2 15:16:00 2024

        *************************************************************
        *                                                           *
        *  Thank you very much for using Q-Chem.  Have a nice day.  *
        *                                                           *
        *************************************************************


