
Running Job 1 of 4 w3_uud_wb97xv_qzvppd_eda_mbe.in
qchem w3_uud_wb97xv_qzvppd_eda_mbe.in_251423.0 /tmp/qchem251423/ 0
/global/common/software/nersc/pm-stable/sw/qchem/6.0.0/exe/qcprog.exe_s w3_uud_wb97xv_qzvppd_eda_mbe.in_251423.0 /tmp/qchem251423/
                  Welcome to Q-Chem
     A Quantum Leap Into The Future Of Chemistry


 Q-Chem 6.0, Q-Chem, Inc., Pleasanton, CA (2022)

 License issued to: National Energy Research Scientific Computing Center (site)

 E. Epifanovsky,  A. T. B. Gilbert,  Xintian Feng,  Joonho Lee,  Yuezhi Mao,  
 N. Mardirossian,  P. Pokhilko,  A. White,  M. Wormit,  M. P. Coons,  
 A. L. Dempwolff,  Zhengting Gan,  D. Hait,  P. R. Horn,  L. D. Jacobson,  
 I. Kaliman,  J. Kussmann,  A. W. Lange,  Ka Un Lao,  D. S. Levine,  Jie Liu,  
 S. C. McKenzie,  A. F. Morrison,  K. Nanda,  F. Plasser,  D. R. Rehn,  
 M. L. Vidal,  Zhi-Qiang You,  Ying Zhu,  B. Alam,  B. Albrecht,  
 A. Aldossary,  E. Alguire,  J. H. Andersen,  V. Athavale,  D. Barton,  
 K. Begam,  A. Behn,  N. Bellonzi,  Y. A. Bernard,  E. J. Berquist,  
 H. Burton,  A. Carreras,  K. Carter-Fenk,  Romit Chakraborty,  
 Chandrima Chakravarty,  Junhan Chen,  A. D. Chien,  K. D. Closser,  
 V. Cofer-Shabica,  L. Cunha,  S. Dasgupta,  Jia Deng,  M. de Wergifosse,  
 M. Diedenhofen,  Hainam Do,  S. Ehlert,  Po-Tung Fang,  S. Fatehi,  
 Qingguo Feng,  T. Friedhoff,  B. Ganoe,  J. Gayvert,  Qinghui Ge,  
 G. Gidofalvi,  M. Goldey,  J. Gomes,  C. Gonzalez-Espinoza,  S. Gulania,  
 A. Gunina,  J. A. Gyamfi,  M. W. D. Hanson-Heine,  P. H. P. Harbach,  
 A. W. Hauser,  M. F. Herbst,  M. Hernandez Vera,  M. Hodecker,  
 Z. C. Holden,  S. Houck,  Xunkun Huang,  Kerwin Hui,  B. C. Huynh,  
 K. Ikeda,  M. Ivanov,  Hyunjun Ji,  Zuxin Jin,  Hanjie Jiang,  B. Kaduk,  
 S. Kaehler,  R. Kang,  K. Khistyaev,  Jaehoon Kim,  Yongbin Kim,  
 P. Klunzinger,  Z. Koczor-Benda,  Joong Hoon Koh,  D. Kosenkov,  
 Saikiran Kotaru,  L. Koulias,  T. Kowalczyk,  C. M. Krauter,  K. Kue,  
 A. Kunitsa,  T. Kus,  A. Landau,  K. V. Lawler,  D. Lefrancois,  S. Lehtola,  
 Rain Li,  Shaozhi Li,  Yi-Pei Li,  Jiashu Liang,  M. Liebenthal,  
 Hung-Hsuan Lin,  You-Sheng Lin,  Fenglai Liu,  Kuan-Yu Liu,  
 M. Loipersberger,  A. Luenser,  C. Malbon,  A. Manjanath,  P. Manohar,  
 E. Mansoor,  S. F. Manzer,  Shan-Ping Mao,  A. V. Marenich,  T. Markovich,  
 S. Mason,  F. Matz,  S. A. Maurer,  P. F. McLaughlin,  M. F. S. J. Menger,  
 J.-M. Mewes,  S. A. Mewes,  P. Morgante,  Mohammad Mostafanejad,  
 J. W. Mullinax,  K. J. Oosterbaan,  G. Paran,  V. Parravicini,  
 Alexander C. Paul,  Suranjan K. Paul,  F. Pavosevic,  Zheng Pei,  S. Prager,  
 E. I. Proynov,  E. Ramos,  B. Rana,  A. E. Rask,  A. Rettig,  R. M. Richard,  
 F. Rob,  E. Rossomme,  T. Scheele,  M. Scheurer,  M. Schneider,  
 P. E. Schneider,  N. Sergueev,  S. M. Sharada,  Hengyuan Shen,  
 W. Skomorowski,  D. W. Small,  C. J. Stein,  Yingli Su,  Yu-Chuan Su,  
 E. J. Sundstrom,  Zhen Tao,  J. Thirman,  Hung-Yi Tsai,  T. Tsuchimochi,  
 N. M. Tubman,  C. Utku,  S. P. Veccham,  O. Vydrov,  J. Wenzel,  
 Jonathan Wong,  J. Witte,  A. Yamada,  Chou-Hsun Yang,  Kun Yao,  
 S. Yeganeh,  S. R. Yost,  A. Zech,  F. Zeller,  Igor Ying Zhang,  
 Xing Zhang,  Yu Zhang,  D. Zuev,  A. Aspuru-Guzik,  A. T. Bell,  
 N. A. Besley,  K. B. Bravaya,  B. R. Brooks,  D. Casanova,  Jeng-Da Chai,  
 Hsing-Ta Chen,  S. Coriani,  C. J. Cramer,  A. E. DePrince, III,  
 R. A. DiStasio Jr.,  A. Dreuw,  B. D. Dunietz,  T. R. Furlani,  
 W. A. Goddard III,  S. Grimme,  S. Hammes-Schiffer,  T. Head-Gordon,  
 W. J. Hehre,  Chao-Ping Hsu,  T.-C. Jagau,  Yousung Jung,  A. Klamt,  
 Jing Kong,  D. S. Lambrecht,  Xiangyuan Li,  WanZhen Liang,  N. J. Mayhall,  
 C. W. McCurdy,  J. B. Neaton,  T. Neudecker,  C. Ochsenfeld,  
 J. A. Parkhill,  R. Peverati,  V. A. Rassolov,  Haisheng Ren,  Yihan Shao,  
 L. V. Slipchenko,  R. P. Steele,  J. E. Subotnik,  A. J. W. Thom,  
 A. Tkatchenko,  D. G. Truhlar,  T. Van Voorhis,  Fan Wang,  
 T. A. Wesolowski,  K. B. Whaley,  H. L. Woodcock III,  P. M. Zimmerman,  
 S. Faraji,  P. M. W. Gill,  M. Head-Gordon,  J. M. Herbert,  A. I. Krylov

 Contributors to earlier versions of Q-Chem not listed above: 
 R. D. Adamson,  B. Austin,  R. Baer,  J. Baker,  G. J. O. Beran,  
 K. Brandhorst,  S. T. Brown,  E. F. C. Byrd,  Arup K. Chakraborty,  
 G. K. L. Chan,  Chun-Min Chang,  Yunqing Chen,  C.-L. Cheng,  
 Siu Hung Chien,  D. M. Chipman,  D. L. Crittenden,  H. Dachsel,  
 R. J. Doerksen,  A. D. Dutoi,  R. G. Edgar,  J. Fosso-Tande,  
 L. Fusti-Molnar,  D. Ghosh,  A. Ghysels,  A. Golubeva-Zadorozhnaya,  
 J. Gonthier,  M. S. Gordon,  S. R. Gwaltney,  G. Hawkins,  J. E. Herr,  
 A. Heyden,  S. Hirata,  E. G. Hohenstein,  G. Kedziora,  F. J. Keil,  
 C. Kelley,  Jihan Kim,  R. A. King,  R. Z. Khaliullin,  P. P. Korambath,  
 W. Kurlancheek,  A. Laurent,  A. M. Lee,  M. S. Lee,  S. V. Levchenko,  
 Ching Yeh Lin,  D. Liotard,  E. Livshits,  R. C. Lochan,  I. Lotan,  
 L. A. Martinez-Martinez,  P. E. Maslen,  N. Nair,  D. P. O'Neill,  
 D. Neuhauser,  E. Neuscamman,  C. M. Oana,  R. Olivares-Amaya,  R. Olson,  
 T. M. Perrine,  B. Peters,  P. A. Pieniazek,  A. Prociuk,  Y. M. Rhee,  
 J. Ritchie,  M. A. Rohrdanz,  E. Rosta,  N. J. Russ,  H. F. Schaefer III,  
 M. W. Schmidt,  N. E. Schultz,  S. Sharma,  N. Shenvi,  C. D. Sherrill,  
 A. C. Simmonett,  A. Sodt,  T. Stein,  D. Stuck,  K. S. Thanthiriwatte,  
 V. Vanovschi,  L. Vogt,  Tao Wang,  A. Warshel,  M. A. Watson,  
 C. F. Williams,  Q. Wu,  X. Xu,  Jun Yang,  W. Zhang,  Yan Zhao

   Please cite Q-Chem as follows:
  "Software for the frontiers of quantum chemistry:
   An overview of developments in the Q-Chem 5 package"
   J. Chem. Phys. 155, 084801 (2021)
   https://doi.org/10.1063/5.0055522 (open access)

 Q-Chem 6.0.0 for Intel X86 EM64T Linux

 Parts of Q-Chem use Armadillo 9.900.5 (Nocturnal Misbehaviour).
 http://arma.sourceforge.net/

 Q-Chem begins on Tue Jan  2 15:10:10 2024  

 Host: login27
0

     Scratch files written to /tmp/qchem251423//
 Jul222 |scratch|qcdevops|jenkins|workspace|build_RNUM 7470   
 Processing $rem in /global/common/software/nersc/pm-stable/sw/qchem/6.0.0/config/preferences:
 Processing $rem in /global/homes/h/heindelj/.qchemrc:

 Q-Chem warning in module libgen/rem_setup.C, line 3291:

 Neither GIA nor STOLL is specified by user. Use STOLL as the default


 Checking the input file for inconsistencies... 	...done.

--------------------------------------------------------------
User input:
--------------------------------------------------------------
$molecule
0 1
--
0 1
O 1.2634833087 -0.9994279931 -0.0915952238
H 1.2205429648 -0.0311115278 -0.0102065649
H 1.9155981039 -1.2951623344 0.5453650621
--
0 1
O 0.2369155056 1.5926027402 0.1073482064
H 0.1965341921 2.2355764378 -0.6026117034
H -0.5845213166 1.0752970988 0.0498088602
--
0 1
O -1.5023472885 -0.5852529295 -0.0787944534
H -2.0845969667 -0.9883371754 0.5669108972
H -0.6548745033 -1.0571773165 -0.0182220803
$end

$rem
JOBTYPE EDA
EDA2 1
method wB97X-V
BASIS def2-qzvppd
XC_GRID 000099000590
NL_GRID 1
UNRESTRICTED FALSE
MAX_SCF_CYCLES 200
SYMMETRY FALSE
SYM_IGNORE TRUE
mem_total  16000
BASIS_LIN_DEP_THRESH 8
THRESH 14
SCF_CONVERGENCE 7
SCF_PRINT_FRGM TRUE
$end

--------------------------------------------------------------
 ----------------------------------------------------------------
             Standard Nuclear Orientation (Angstroms)
    I     Atom           X                Y                Z
 ----------------------------------------------------------------
    1      O       1.2634833087    -0.9994279931    -0.0915952238
    2      H       1.2205429648    -0.0311115278    -0.0102065649
    3      H       1.9155981039    -1.2951623344     0.5453650621
    4      O       0.2369155056     1.5926027402     0.1073482064
    5      H       0.1965341921     2.2355764378    -0.6026117034
    6      H      -0.5845213166     1.0752970988     0.0498088602
    7      O      -1.5023472885    -0.5852529295    -0.0787944534
    8      H      -2.0845969667    -0.9883371754     0.5669108972
    9      H      -0.6548745033    -1.0571773165    -0.0182220803
 ----------------------------------------------------------------
 Nuclear Repulsion Energy =          84.50546902 hartrees
 There are       15 alpha and       15 beta electrons
 Requested basis set is def2-QZVPPD
 There are 126 shells and 396 basis functions

 Total QAlloc Memory Limit  16000 MB
 Mega-Array Size       188 MB
 MEM_STATIC part       192 MB


                       Distance Matrix (Angstroms)
             O (  1)   H (  2)   H (  3)   O (  4)   H (  5)   H (  6)
   H (  2)  0.972679
   H (  3)  0.958348  1.545829
   O (  4)  2.795003  1.902049  3.368831
   H (  5)  3.444528  2.556836  4.091350  0.958691
   H (  6)  2.782014  2.118018  3.480697  0.972458  1.543356
   O (  7)  2.796699  2.779552  3.546251  2.793338  3.334316  1.901676
   H (  8)  3.412242  3.489025  4.012003  3.501695  4.118854  2.603115
   H (  9)  1.920629  2.137771  2.642271  2.798641  3.450889  2.134719
             O (  7)   H (  8)
   H (  8)  0.958346
   H (  9)  0.971901  1.546359
 
 A cutoff of  1.0D-14 yielded   7462 shell pairs
 There are     74050 function pairs (    105959 Cartesian)
 Smallest overlap matrix eigenvalue = 5.47E-05

 Scale SEOQF with 1.000000e-01/1.000000e-01/1.000000e-01

 Standard Electronic Orientation quadrupole field applied
 Nucleus-field energy     =     0.0000000043 hartrees

 -----------------------------------------------------------------------
  General SCF calculation program by
  Eric Jon Sundstrom, Paul Horn, Yuezhi Mao, Dmitri Zuev, Alec White,
  David Stuck, Shaama M.S., Shane Yost, Joonho Lee, David Small,
  Daniel Levine, Susi Lehtola, Hugh Burton, Evgeny Epifanovsky,
  Bang C. Huynh
 -----------------------------------------------------------------------
================================================================
                 ALMO-EDA with the EDA2 driver                  
================================================================
 The second-generation ALMO-EDA (for DFT):                      
 P. R. Horn, Y. Mao and M. Head-Gordon, PCCP, 18, 23067 (2016)  
 Y. Mao et al. Annu. Rev. Phys. Chem. 72, 641 (2021)            
 Decomposition of the frozen energy:                            
 P. R. Horn, Y. Mao and M. Head-Gordon, JCP, 144, 114107 (2016) 
 FERF model for polarization:                                   
 P. R. Horn and M. Head-Gordon, JCP, 143, 114111 (2015)         
================================================================
 Using eda2 option set 1
 Option set summary: Frozen orbital wavefunction, initial wavefunction decomposition, and nDQ polarization.
--------------------------------
Printing EDA Options
--------------------------------
eda_child_super_basis      0
fragmo_guess_mode          0
child_mp                   1
child_mp_orders            232
cls_elec                   1
cls_disp                   0
scfmi_mode                 1
scfmi_occs                 0
scfmi_virts                0
frz_relax                  0
frz_relax_method           0
dc_pen_start               0
dc_pen_conv                0
dc_pen_increment           0
dc_pen_steps               0
dc_pen_thresh_factor       0
dc_pen_pre_newton_thresh   0
frz_ortho_decomp           1
frz_ortho_decomp_conv      6
plot_mo_ortho_frz          0
frgm_method                2
scfmi_freeze_ss            0
separate_rehyb             0
plot_diff_den              0
eda_nocv                   0
eda_vct_relax              1
disp_free_x                0
disp_free_c                0
eda_bsse                   0
eda_pct_a                  0
eda_covp                   0
--------------------------------
 Attempting to make child job directory: /tmp/qchem251423//Frg1/
 Attempting to make child job directory: /tmp/qchem251423//Frg2/
 Attempting to make child job directory: /tmp/qchem251423//Frg3/
 Creating input file /tmp/qchem251423/Frg1.input
 using default PutDataFrgm: nothing
 calling putenv with: QCSCRATCH=/tmp/qchem251423/ 
 calling putenv with: QCLOCALSCR=/tmp/qchem251423/ 
 Spawning Job For Fragment 0
                  Welcome to Q-Chem
     A Quantum Leap Into The Future Of Chemistry


 Q-Chem 6.0, Q-Chem, Inc., Pleasanton, CA (2022)

 License issued to: National Energy Research Scientific Computing Center (site)

 E. Epifanovsky,  A. T. B. Gilbert,  Xintian Feng,  Joonho Lee,  Yuezhi Mao,  
 N. Mardirossian,  P. Pokhilko,  A. White,  M. Wormit,  M. P. Coons,  
 A. L. Dempwolff,  Zhengting Gan,  D. Hait,  P. R. Horn,  L. D. Jacobson,  
 I. Kaliman,  J. Kussmann,  A. W. Lange,  Ka Un Lao,  D. S. Levine,  Jie Liu,  
 S. C. McKenzie,  A. F. Morrison,  K. Nanda,  F. Plasser,  D. R. Rehn,  
 M. L. Vidal,  Zhi-Qiang You,  Ying Zhu,  B. Alam,  B. Albrecht,  
 A. Aldossary,  E. Alguire,  J. H. Andersen,  V. Athavale,  D. Barton,  
 K. Begam,  A. Behn,  N. Bellonzi,  Y. A. Bernard,  E. J. Berquist,  
 H. Burton,  A. Carreras,  K. Carter-Fenk,  Romit Chakraborty,  
 Chandrima Chakravarty,  Junhan Chen,  A. D. Chien,  K. D. Closser,  
 V. Cofer-Shabica,  L. Cunha,  S. Dasgupta,  Jia Deng,  M. de Wergifosse,  
 M. Diedenhofen,  Hainam Do,  S. Ehlert,  Po-Tung Fang,  S. Fatehi,  
 Qingguo Feng,  T. Friedhoff,  B. Ganoe,  J. Gayvert,  Qinghui Ge,  
 G. Gidofalvi,  M. Goldey,  J. Gomes,  C. Gonzalez-Espinoza,  S. Gulania,  
 A. Gunina,  J. A. Gyamfi,  M. W. D. Hanson-Heine,  P. H. P. Harbach,  
 A. W. Hauser,  M. F. Herbst,  M. Hernandez Vera,  M. Hodecker,  
 Z. C. Holden,  S. Houck,  Xunkun Huang,  Kerwin Hui,  B. C. Huynh,  
 K. Ikeda,  M. Ivanov,  Hyunjun Ji,  Zuxin Jin,  Hanjie Jiang,  B. Kaduk,  
 S. Kaehler,  R. Kang,  K. Khistyaev,  Jaehoon Kim,  Yongbin Kim,  
 P. Klunzinger,  Z. Koczor-Benda,  Joong Hoon Koh,  D. Kosenkov,  
 Saikiran Kotaru,  L. Koulias,  T. Kowalczyk,  C. M. Krauter,  K. Kue,  
 A. Kunitsa,  T. Kus,  A. Landau,  K. V. Lawler,  D. Lefrancois,  S. Lehtola,  
 Rain Li,  Shaozhi Li,  Yi-Pei Li,  Jiashu Liang,  M. Liebenthal,  
 Hung-Hsuan Lin,  You-Sheng Lin,  Fenglai Liu,  Kuan-Yu Liu,  
 M. Loipersberger,  A. Luenser,  C. Malbon,  A. Manjanath,  P. Manohar,  
 E. Mansoor,  S. F. Manzer,  Shan-Ping Mao,  A. V. Marenich,  T. Markovich,  
 S. Mason,  F. Matz,  S. A. Maurer,  P. F. McLaughlin,  M. F. S. J. Menger,  
 J.-M. Mewes,  S. A. Mewes,  P. Morgante,  Mohammad Mostafanejad,  
 J. W. Mullinax,  K. J. Oosterbaan,  G. Paran,  V. Parravicini,  
 Alexander C. Paul,  Suranjan K. Paul,  F. Pavosevic,  Zheng Pei,  S. Prager,  
 E. I. Proynov,  E. Ramos,  B. Rana,  A. E. Rask,  A. Rettig,  R. M. Richard,  
 F. Rob,  E. Rossomme,  T. Scheele,  M. Scheurer,  M. Schneider,  
 P. E. Schneider,  N. Sergueev,  S. M. Sharada,  Hengyuan Shen,  
 W. Skomorowski,  D. W. Small,  C. J. Stein,  Yingli Su,  Yu-Chuan Su,  
 E. J. Sundstrom,  Zhen Tao,  J. Thirman,  Hung-Yi Tsai,  T. Tsuchimochi,  
 N. M. Tubman,  C. Utku,  S. P. Veccham,  O. Vydrov,  J. Wenzel,  
 Jonathan Wong,  J. Witte,  A. Yamada,  Chou-Hsun Yang,  Kun Yao,  
 S. Yeganeh,  S. R. Yost,  A. Zech,  F. Zeller,  Igor Ying Zhang,  
 Xing Zhang,  Yu Zhang,  D. Zuev,  A. Aspuru-Guzik,  A. T. Bell,  
 N. A. Besley,  K. B. Bravaya,  B. R. Brooks,  D. Casanova,  Jeng-Da Chai,  
 Hsing-Ta Chen,  S. Coriani,  C. J. Cramer,  A. E. DePrince, III,  
 R. A. DiStasio Jr.,  A. Dreuw,  B. D. Dunietz,  T. R. Furlani,  
 W. A. Goddard III,  S. Grimme,  S. Hammes-Schiffer,  T. Head-Gordon,  
 W. J. Hehre,  Chao-Ping Hsu,  T.-C. Jagau,  Yousung Jung,  A. Klamt,  
 Jing Kong,  D. S. Lambrecht,  Xiangyuan Li,  WanZhen Liang,  N. J. Mayhall,  
 C. W. McCurdy,  J. B. Neaton,  T. Neudecker,  C. Ochsenfeld,  
 J. A. Parkhill,  R. Peverati,  V. A. Rassolov,  Haisheng Ren,  Yihan Shao,  
 L. V. Slipchenko,  R. P. Steele,  J. E. Subotnik,  A. J. W. Thom,  
 A. Tkatchenko,  D. G. Truhlar,  T. Van Voorhis,  Fan Wang,  
 T. A. Wesolowski,  K. B. Whaley,  H. L. Woodcock III,  P. M. Zimmerman,  
 S. Faraji,  P. M. W. Gill,  M. Head-Gordon,  J. M. Herbert,  A. I. Krylov

 Contributors to earlier versions of Q-Chem not listed above: 
 R. D. Adamson,  B. Austin,  R. Baer,  J. Baker,  G. J. O. Beran,  
 K. Brandhorst,  S. T. Brown,  E. F. C. Byrd,  Arup K. Chakraborty,  
 G. K. L. Chan,  Chun-Min Chang,  Yunqing Chen,  C.-L. Cheng,  
 Siu Hung Chien,  D. M. Chipman,  D. L. Crittenden,  H. Dachsel,  
 R. J. Doerksen,  A. D. Dutoi,  R. G. Edgar,  J. Fosso-Tande,  
 L. Fusti-Molnar,  D. Ghosh,  A. Ghysels,  A. Golubeva-Zadorozhnaya,  
 J. Gonthier,  M. S. Gordon,  S. R. Gwaltney,  G. Hawkins,  J. E. Herr,  
 A. Heyden,  S. Hirata,  E. G. Hohenstein,  G. Kedziora,  F. J. Keil,  
 C. Kelley,  Jihan Kim,  R. A. King,  R. Z. Khaliullin,  P. P. Korambath,  
 W. Kurlancheek,  A. Laurent,  A. M. Lee,  M. S. Lee,  S. V. Levchenko,  
 Ching Yeh Lin,  D. Liotard,  E. Livshits,  R. C. Lochan,  I. Lotan,  
 L. A. Martinez-Martinez,  P. E. Maslen,  N. Nair,  D. P. O'Neill,  
 D. Neuhauser,  E. Neuscamman,  C. M. Oana,  R. Olivares-Amaya,  R. Olson,  
 T. M. Perrine,  B. Peters,  P. A. Pieniazek,  A. Prociuk,  Y. M. Rhee,  
 J. Ritchie,  M. A. Rohrdanz,  E. Rosta,  N. J. Russ,  H. F. Schaefer III,  
 M. W. Schmidt,  N. E. Schultz,  S. Sharma,  N. Shenvi,  C. D. Sherrill,  
 A. C. Simmonett,  A. Sodt,  T. Stein,  D. Stuck,  K. S. Thanthiriwatte,  
 V. Vanovschi,  L. Vogt,  Tao Wang,  A. Warshel,  M. A. Watson,  
 C. F. Williams,  Q. Wu,  X. Xu,  Jun Yang,  W. Zhang,  Yan Zhao

   Please cite Q-Chem as follows:
  "Software for the frontiers of quantum chemistry:
   An overview of developments in the Q-Chem 5 package"
   J. Chem. Phys. 155, 084801 (2021)
   https://doi.org/10.1063/5.0055522 (open access)

 Q-Chem 6.0.0 for Intel X86 EM64T Linux

 Parts of Q-Chem use Armadillo 9.900.5 (Nocturnal Misbehaviour).
 http://arma.sourceforge.net/

 Q-Chem begins on Tue Jan  2 15:10:11 2024  

 Host: login27
0

     Scratch files written to /tmp/qchem251423//Frg1//
 Jul222 |scratch|qcdevops|jenkins|workspace|build_RNUM 7470   
 Processing $rem in /global/common/software/nersc/pm-stable/sw/qchem/6.0.0/config/preferences:
 Processing $rem in /global/homes/h/heindelj/.qchemrc:

 Checking the input file for inconsistencies... 	...done.

--------------------------------------------------------------
User input:
--------------------------------------------------------------
$molecule
0 1
 8	1.2634833087	-0.9994279931	-0.0915952238
 1	1.2205429648	-0.0311115278	-0.0102065649
 1	1.9155981039	-1.2951623344	0.5453650621
$end
$rem
EDA2		1
METHOD		WB97X-V
BASIS		DEF2-QZVPPD
XC_GRID		000099000590
NL_GRID		1
UNRESTRICTED		FALSE
MAX_SCF_CYCLES		200
SYMMETRY		FALSE
SYM_IGNORE		TRUE
BASIS_LIN_DEP_THRESH		8
THRESH		14
SCF_CONVERGENCE		7
SCF_PRINT_FRGM		TRUE
!required keywords
JOBTYPE		SP
SYM_IGNORE		TRUE
SUBSYSTEM		TRUE
CHILD_INSTRUCTION		2
GEN_SCFMAN		TRUE
SYM_IGNORE		TRUE
SCF_CONVERGENCE		7
MEM_STATIC		192
MEM_TOTAL		16000
PURECART		1111111
FRGM_METHOD		FALSE
CHILD_MP		1
CHILD_MP_ORDERS		232
EDA2		FALSE
FRZ_RELAX		0
FRZ_RELAX_METHOD		0
EDA_CLS_ELEC		1
EDA_CLS_DISP		0
FRZ_ORTHO_DECOMP		1
ECP		0
$end
--------------------------------------------------------------
 ----------------------------------------------------------------
             Standard Nuclear Orientation (Angstroms)
    I     Atom           X                Y                Z
 ----------------------------------------------------------------
    1      O       1.2634833087    -0.9994279931    -0.0915952238
    2      H       1.2205429648    -0.0311115278    -0.0102065649
    3      H       1.9155981039    -1.2951623344     0.5453650621
 ----------------------------------------------------------------
 Nuclear Repulsion Energy =           9.11206448 hartrees
 There are        5 alpha and        5 beta electrons
 Requested basis set is def2-QZVPPD
 There are 42 shells and 132 basis functions

 Total QAlloc Memory Limit  16000 MB
 Mega-Array Size       188 MB
 MEM_STATIC part       192 MB


                       Distance Matrix (Angstroms)
             O (  1)   H (  2)
   H (  2)  0.972679
   H (  3)  0.958348  1.545829
 
 A cutoff of  1.0D-14 yielded    903 shell pairs
 There are      9017 function pairs (     13005 Cartesian)
 Smallest overlap matrix eigenvalue = 1.37E-04

 Scale SEOQF with 1.000000e-01/1.000000e-01/1.000000e-01

 Standard Electronic Orientation quadrupole field applied
 Nucleus-field energy     =     0.0000000013 hartrees
 Guess from superposition of atomic densities
 Warning:  Energy on first SCF cycle will be non-variational
 SAD guess density has 10.000000 electrons

 -----------------------------------------------------------------------
  General SCF calculation program by
  Eric Jon Sundstrom, Paul Horn, Yuezhi Mao, Dmitri Zuev, Alec White,
  David Stuck, Shaama M.S., Shane Yost, Joonho Lee, David Small,
  Daniel Levine, Susi Lehtola, Hugh Burton, Evgeny Epifanovsky,
  Bang C. Huynh
 -----------------------------------------------------------------------
 Exchange:     0.1670 Hartree-Fock + 1.0000 wB97X-V + LR-HF
 Correlation:  1.0000 wB97X-V
 Using Euler-Maclaurin-Lebedev (99,590) quadrature formula
 Nonlocal Correlation:  VV10 with C = 0.0100 and b = 6.00 and scale = 1.00000
 Grid used for NLC:  SG-1 standard quadrature
Energy prior to optimization (guess energy) = -76.386866308563
Begin Timing: Total SCF Calculation
begin iterations for algorithm: DIIS         
the SCF tolerance is set to 1.00e-07
    1     -76.3868663086      5.69e-03     00000 
    2     -76.3875458320      6.23e-03     00000 
    3     -76.4404453191      2.69e-04     00000 
    4     -76.4405503140      6.88e-05     00000 
    5     -76.4405617651      8.62e-06     00000 
    6     -76.4405621107      1.16e-06     00000 
    7     -76.4405621219      2.22e-07     00000 
    8     -76.4405621223      3.19e-08     00000 Convergence criterion met
Timing for Total SCF: 2.00s (wall), 154.60s (cpu)
Multipole orders to be included
        2
        3
computing dipole RHS
computing quadrupole RHS
total number of RHS in solve_reponses: 8
RHS batch sizes
        8
Beginning Block Conjugate Gradient Iterations. Batch Number: 0
              1      4.13e-01     00000 Conjugate Gradient Iteration
              2      1.23e-01     00000 Conjugate Gradient Iteration
              3      2.31e-02     00000 Conjugate Gradient Iteration
              4      3.64e-03     00000 Conjugate Gradient Iteration
              5      4.50e-04     00000 Conjugate Gradient Iteration
              6      5.58e-05     00000 Conjugate Gradient Iteration
              7      4.35e-06     00000 Conjugate Gradient Iteration
              8      3.16e-07     00000 Conjugate Gradient Iteration
              9      2.36e-08     00000 Conjugate Gradient Iteration
             10      2.07e-09     00000 CG Converged
batch 0 complete
Done Calculating Responses
TESTING ORTHOGONALIZATION OF MULTIPOLE BASIS
Max deviation in metric = 3.64e-12
Multipole virts passed orthogonality test
Virts Per Order
        15
        25
 
 --------------------------------------------------------------
 
                    Orbital Energies (a.u.)
 --------------------------------------------------------------
 
 Alpha MOs
 -- Occupied --
-19.2196  -1.1416  -0.6478  -0.5026  -0.4295
 -- Virtual --
  0.0564   0.0815   0.1062   0.1078   0.1843   0.2020   0.2265   0.2354
  0.2467   0.2797   0.3087   0.3349   0.4090   0.4154   0.4476   0.5006
  0.5165   0.5188   0.5754   0.5924   0.6040   0.7127   0.8373   0.8781
  0.9137   1.0078   1.0600   1.1087   1.1762   1.2032   1.4051   1.4422
  1.5025   1.5211   1.5763   1.6510   1.6807   1.9883   2.0149   2.0772
  2.1122   2.3244   2.3702   2.5130   2.5194   2.5426   2.6399   2.6748
  2.7446   2.7676   2.7852   3.0177   3.1760   3.2747   3.3407   3.5110
  3.7860   3.9631   3.9710   4.0001   4.1833   4.2102   4.3388   4.3400
  4.4865   4.6505   4.8732   4.9047   5.3289   5.4486   5.5147   5.8186
  5.9808   6.0484   6.1076   6.4292   6.6240   6.7972   7.1525   7.2024
  7.3154   7.3425   7.4189   7.4258   7.4919   7.5106   7.7433   7.7787
  7.8559   7.9120   7.9142   7.9561   8.0715   8.1609   8.4203   8.6164
  8.6654   8.8345   8.8372   9.0844   9.1077   9.8472   9.9004  10.2914
 10.4147  10.7655  10.8580  10.9930  11.1712  11.2256  11.3694  11.5282
 11.7910  11.8493  11.9229  11.9816  12.3150  12.8925  13.5306  13.6722
 13.6835  14.1226  14.4826  16.6936  16.8371  48.4114 253.3423
 --------------------------------------------------------------
 
          Ground-State Mulliken Net Atomic Charges

     Atom                 Charge (a.u.)
  ----------------------------------------
      1 O                    -0.415404
      2 H                     0.208751
      3 H                     0.206653
  ----------------------------------------
  Sum of atomic charges =     0.000000

 -----------------------------------------------------------------
                    Cartesian Multipole Moments
 -----------------------------------------------------------------
    Charge (ESU x 10^10)
                 0.0000
    Dipole Moment (Debye)
         X       0.9770      Y       1.0703      Z       1.1510
       Tot       1.8507
    Quadrupole Moments (Debye-Ang)
        XX      -4.1432     XY      -0.3625     YY      -7.0639
        XZ       2.4886     YZ      -1.6407     ZZ      -6.8878
    Octopole Moments (Debye-Ang^2)
       XXX     -20.8455    XXY       3.3082    XYY      -6.7944
       YYY      18.6959    XXZ       5.2314    XYZ      -3.3147
       YYZ       2.4476    XZZ      -8.6747    YZZ       6.3122
       ZZZ       1.1665
    Hexadecapole Moments (Debye-Ang^3)
      XXXX     -65.4212   XXXY      16.7036   XXYY     -13.8059
      XYYY      21.2140   YYYY     -43.0052   XXXZ      10.5150
      XXYZ      -6.7046   XYYZ       4.6162   YYYZ      -3.5848
      XXZZ     -13.2769   XYZZ       7.7908   YYZZ      -8.4268
      XZZZ       1.6549   YZZZ      -1.2274   ZZZZ      -7.7974
 -----------------------------------------------------------------
 Total job time:  8.09s(wall), 493.92s(cpu) 
 Tue Jan  2 15:10:19 2024

        *************************************************************
        *                                                           *
        *  Thank you very much for using Q-Chem.  Have a nice day.  *
        *                                                           *
        *************************************************************


 Done Job For Fragment 0
 calling putenv with: QCSCRATCH=/pscratch/sd/h/heindelj 
 calling putenv with: QCLOCALSCR=/tmp 
 calling putenv with: QCTHREADS=64 
 Creating input file /tmp/qchem251423/Frg2.input
 using default PutDataFrgm: nothing
 calling putenv with: QCSCRATCH=/tmp/qchem251423/ 
 calling putenv with: QCLOCALSCR=/tmp/qchem251423/ 
 Spawning Job For Fragment 1
                  Welcome to Q-Chem
     A Quantum Leap Into The Future Of Chemistry


 Q-Chem 6.0, Q-Chem, Inc., Pleasanton, CA (2022)

 License issued to: National Energy Research Scientific Computing Center (site)

 E. Epifanovsky,  A. T. B. Gilbert,  Xintian Feng,  Joonho Lee,  Yuezhi Mao,  
 N. Mardirossian,  P. Pokhilko,  A. White,  M. Wormit,  M. P. Coons,  
 A. L. Dempwolff,  Zhengting Gan,  D. Hait,  P. R. Horn,  L. D. Jacobson,  
 I. Kaliman,  J. Kussmann,  A. W. Lange,  Ka Un Lao,  D. S. Levine,  Jie Liu,  
 S. C. McKenzie,  A. F. Morrison,  K. Nanda,  F. Plasser,  D. R. Rehn,  
 M. L. Vidal,  Zhi-Qiang You,  Ying Zhu,  B. Alam,  B. Albrecht,  
 A. Aldossary,  E. Alguire,  J. H. Andersen,  V. Athavale,  D. Barton,  
 K. Begam,  A. Behn,  N. Bellonzi,  Y. A. Bernard,  E. J. Berquist,  
 H. Burton,  A. Carreras,  K. Carter-Fenk,  Romit Chakraborty,  
 Chandrima Chakravarty,  Junhan Chen,  A. D. Chien,  K. D. Closser,  
 V. Cofer-Shabica,  L. Cunha,  S. Dasgupta,  Jia Deng,  M. de Wergifosse,  
 M. Diedenhofen,  Hainam Do,  S. Ehlert,  Po-Tung Fang,  S. Fatehi,  
 Qingguo Feng,  T. Friedhoff,  B. Ganoe,  J. Gayvert,  Qinghui Ge,  
 G. Gidofalvi,  M. Goldey,  J. Gomes,  C. Gonzalez-Espinoza,  S. Gulania,  
 A. Gunina,  J. A. Gyamfi,  M. W. D. Hanson-Heine,  P. H. P. Harbach,  
 A. W. Hauser,  M. F. Herbst,  M. Hernandez Vera,  M. Hodecker,  
 Z. C. Holden,  S. Houck,  Xunkun Huang,  Kerwin Hui,  B. C. Huynh,  
 K. Ikeda,  M. Ivanov,  Hyunjun Ji,  Zuxin Jin,  Hanjie Jiang,  B. Kaduk,  
 S. Kaehler,  R. Kang,  K. Khistyaev,  Jaehoon Kim,  Yongbin Kim,  
 P. Klunzinger,  Z. Koczor-Benda,  Joong Hoon Koh,  D. Kosenkov,  
 Saikiran Kotaru,  L. Koulias,  T. Kowalczyk,  C. M. Krauter,  K. Kue,  
 A. Kunitsa,  T. Kus,  A. Landau,  K. V. Lawler,  D. Lefrancois,  S. Lehtola,  
 Rain Li,  Shaozhi Li,  Yi-Pei Li,  Jiashu Liang,  M. Liebenthal,  
 Hung-Hsuan Lin,  You-Sheng Lin,  Fenglai Liu,  Kuan-Yu Liu,  
 M. Loipersberger,  A. Luenser,  C. Malbon,  A. Manjanath,  P. Manohar,  
 E. Mansoor,  S. F. Manzer,  Shan-Ping Mao,  A. V. Marenich,  T. Markovich,  
 S. Mason,  F. Matz,  S. A. Maurer,  P. F. McLaughlin,  M. F. S. J. Menger,  
 J.-M. Mewes,  S. A. Mewes,  P. Morgante,  Mohammad Mostafanejad,  
 J. W. Mullinax,  K. J. Oosterbaan,  G. Paran,  V. Parravicini,  
 Alexander C. Paul,  Suranjan K. Paul,  F. Pavosevic,  Zheng Pei,  S. Prager,  
 E. I. Proynov,  E. Ramos,  B. Rana,  A. E. Rask,  A. Rettig,  R. M. Richard,  
 F. Rob,  E. Rossomme,  T. Scheele,  M. Scheurer,  M. Schneider,  
 P. E. Schneider,  N. Sergueev,  S. M. Sharada,  Hengyuan Shen,  
 W. Skomorowski,  D. W. Small,  C. J. Stein,  Yingli Su,  Yu-Chuan Su,  
 E. J. Sundstrom,  Zhen Tao,  J. Thirman,  Hung-Yi Tsai,  T. Tsuchimochi,  
 N. M. Tubman,  C. Utku,  S. P. Veccham,  O. Vydrov,  J. Wenzel,  
 Jonathan Wong,  J. Witte,  A. Yamada,  Chou-Hsun Yang,  Kun Yao,  
 S. Yeganeh,  S. R. Yost,  A. Zech,  F. Zeller,  Igor Ying Zhang,  
 Xing Zhang,  Yu Zhang,  D. Zuev,  A. Aspuru-Guzik,  A. T. Bell,  
 N. A. Besley,  K. B. Bravaya,  B. R. Brooks,  D. Casanova,  Jeng-Da Chai,  
 Hsing-Ta Chen,  S. Coriani,  C. J. Cramer,  A. E. DePrince, III,  
 R. A. DiStasio Jr.,  A. Dreuw,  B. D. Dunietz,  T. R. Furlani,  
 W. A. Goddard III,  S. Grimme,  S. Hammes-Schiffer,  T. Head-Gordon,  
 W. J. Hehre,  Chao-Ping Hsu,  T.-C. Jagau,  Yousung Jung,  A. Klamt,  
 Jing Kong,  D. S. Lambrecht,  Xiangyuan Li,  WanZhen Liang,  N. J. Mayhall,  
 C. W. McCurdy,  J. B. Neaton,  T. Neudecker,  C. Ochsenfeld,  
 J. A. Parkhill,  R. Peverati,  V. A. Rassolov,  Haisheng Ren,  Yihan Shao,  
 L. V. Slipchenko,  R. P. Steele,  J. E. Subotnik,  A. J. W. Thom,  
 A. Tkatchenko,  D. G. Truhlar,  T. Van Voorhis,  Fan Wang,  
 T. A. Wesolowski,  K. B. Whaley,  H. L. Woodcock III,  P. M. Zimmerman,  
 S. Faraji,  P. M. W. Gill,  M. Head-Gordon,  J. M. Herbert,  A. I. Krylov

 Contributors to earlier versions of Q-Chem not listed above: 
 R. D. Adamson,  B. Austin,  R. Baer,  J. Baker,  G. J. O. Beran,  
 K. Brandhorst,  S. T. Brown,  E. F. C. Byrd,  Arup K. Chakraborty,  
 G. K. L. Chan,  Chun-Min Chang,  Yunqing Chen,  C.-L. Cheng,  
 Siu Hung Chien,  D. M. Chipman,  D. L. Crittenden,  H. Dachsel,  
 R. J. Doerksen,  A. D. Dutoi,  R. G. Edgar,  J. Fosso-Tande,  
 L. Fusti-Molnar,  D. Ghosh,  A. Ghysels,  A. Golubeva-Zadorozhnaya,  
 J. Gonthier,  M. S. Gordon,  S. R. Gwaltney,  G. Hawkins,  J. E. Herr,  
 A. Heyden,  S. Hirata,  E. G. Hohenstein,  G. Kedziora,  F. J. Keil,  
 C. Kelley,  Jihan Kim,  R. A. King,  R. Z. Khaliullin,  P. P. Korambath,  
 W. Kurlancheek,  A. Laurent,  A. M. Lee,  M. S. Lee,  S. V. Levchenko,  
 Ching Yeh Lin,  D. Liotard,  E. Livshits,  R. C. Lochan,  I. Lotan,  
 L. A. Martinez-Martinez,  P. E. Maslen,  N. Nair,  D. P. O'Neill,  
 D. Neuhauser,  E. Neuscamman,  C. M. Oana,  R. Olivares-Amaya,  R. Olson,  
 T. M. Perrine,  B. Peters,  P. A. Pieniazek,  A. Prociuk,  Y. M. Rhee,  
 J. Ritchie,  M. A. Rohrdanz,  E. Rosta,  N. J. Russ,  H. F. Schaefer III,  
 M. W. Schmidt,  N. E. Schultz,  S. Sharma,  N. Shenvi,  C. D. Sherrill,  
 A. C. Simmonett,  A. Sodt,  T. Stein,  D. Stuck,  K. S. Thanthiriwatte,  
 V. Vanovschi,  L. Vogt,  Tao Wang,  A. Warshel,  M. A. Watson,  
 C. F. Williams,  Q. Wu,  X. Xu,  Jun Yang,  W. Zhang,  Yan Zhao

   Please cite Q-Chem as follows:
  "Software for the frontiers of quantum chemistry:
   An overview of developments in the Q-Chem 5 package"
   J. Chem. Phys. 155, 084801 (2021)
   https://doi.org/10.1063/5.0055522 (open access)

 Q-Chem 6.0.0 for Intel X86 EM64T Linux

 Parts of Q-Chem use Armadillo 9.900.5 (Nocturnal Misbehaviour).
 http://arma.sourceforge.net/

 Q-Chem begins on Tue Jan  2 15:10:20 2024  

 Host: login27
0

     Scratch files written to /tmp/qchem251423//Frg2//
 Jul222 |scratch|qcdevops|jenkins|workspace|build_RNUM 7470   
 Processing $rem in /global/common/software/nersc/pm-stable/sw/qchem/6.0.0/config/preferences:
 Processing $rem in /global/homes/h/heindelj/.qchemrc:

 Checking the input file for inconsistencies... 	...done.

--------------------------------------------------------------
User input:
--------------------------------------------------------------
$molecule
0 1
 8	0.2369155056	1.5926027402	0.1073482064
 1	0.1965341921	2.2355764378	-0.6026117034
 1	-0.5845213166	1.0752970988	0.0498088602
$end
$rem
EDA2		1
METHOD		WB97X-V
BASIS		DEF2-QZVPPD
XC_GRID		000099000590
NL_GRID		1
UNRESTRICTED		FALSE
MAX_SCF_CYCLES		200
SYMMETRY		FALSE
SYM_IGNORE		TRUE
BASIS_LIN_DEP_THRESH		8
THRESH		14
SCF_CONVERGENCE		7
SCF_PRINT_FRGM		TRUE
!required keywords
JOBTYPE		SP
SYM_IGNORE		TRUE
SUBSYSTEM		TRUE
CHILD_INSTRUCTION		2
GEN_SCFMAN		TRUE
SYM_IGNORE		TRUE
SCF_CONVERGENCE		7
MEM_STATIC		192
MEM_TOTAL		16000
PURECART		1111111
FRGM_METHOD		FALSE
CHILD_MP		1
CHILD_MP_ORDERS		232
EDA2		FALSE
FRZ_RELAX		0
FRZ_RELAX_METHOD		0
EDA_CLS_ELEC		1
EDA_CLS_DISP		0
FRZ_ORTHO_DECOMP		1
ECP		0
$end
--------------------------------------------------------------
 ----------------------------------------------------------------
             Standard Nuclear Orientation (Angstroms)
    I     Atom           X                Y                Z
 ----------------------------------------------------------------
    1      O       0.2369155056     1.5926027402     0.1073482064
    2      H       0.1965341921     2.2355764378    -0.6026117034
    3      H      -0.5845213166     1.0752970988     0.0498088602
 ----------------------------------------------------------------
 Nuclear Repulsion Energy =           9.11202167 hartrees
 There are        5 alpha and        5 beta electrons
 Requested basis set is def2-QZVPPD
 There are 42 shells and 132 basis functions

 Total QAlloc Memory Limit  16000 MB
 Mega-Array Size       188 MB
 MEM_STATIC part       192 MB


                       Distance Matrix (Angstroms)
             O (  1)   H (  2)
   H (  2)  0.958691
   H (  3)  0.972458  1.543356
 
 A cutoff of  1.0D-14 yielded    903 shell pairs
 There are      9017 function pairs (     13005 Cartesian)
 Smallest overlap matrix eigenvalue = 1.37E-04

 Scale SEOQF with 1.000000e-01/1.000000e-01/1.000000e-01

 Standard Electronic Orientation quadrupole field applied
 Nucleus-field energy     =     0.0000000019 hartrees
 Guess from superposition of atomic densities
 Warning:  Energy on first SCF cycle will be non-variational
 SAD guess density has 10.000000 electrons

 -----------------------------------------------------------------------
  General SCF calculation program by
  Eric Jon Sundstrom, Paul Horn, Yuezhi Mao, Dmitri Zuev, Alec White,
  David Stuck, Shaama M.S., Shane Yost, Joonho Lee, David Small,
  Daniel Levine, Susi Lehtola, Hugh Burton, Evgeny Epifanovsky,
  Bang C. Huynh
 -----------------------------------------------------------------------
 Exchange:     0.1670 Hartree-Fock + 1.0000 wB97X-V + LR-HF
 Correlation:  1.0000 wB97X-V
 Using Euler-Maclaurin-Lebedev (99,590) quadrature formula
 Nonlocal Correlation:  VV10 with C = 0.0100 and b = 6.00 and scale = 1.00000
 Grid used for NLC:  SG-1 standard quadrature
Energy prior to optimization (guess energy) = -76.386874933107
Begin Timing: Total SCF Calculation
begin iterations for algorithm: DIIS         
the SCF tolerance is set to 1.00e-07
    1     -76.3868749331      5.69e-03     00000 
    2     -76.3875415731      6.23e-03     00000 
    3     -76.4404687354      2.69e-04     00000 
    4     -76.4405738175      6.88e-05     00000 
    5     -76.4405852727      8.61e-06     00000 
    6     -76.4405856174      1.16e-06     00000 
    7     -76.4405856287      2.23e-07     00000 
    8     -76.4405856291      3.20e-08     00000 Convergence criterion met
Timing for Total SCF: 2.00s (wall), 148.28s (cpu)
Multipole orders to be included
        2
        3
computing dipole RHS
computing quadrupole RHS
total number of RHS in solve_reponses: 8
RHS batch sizes
        8
Beginning Block Conjugate Gradient Iterations. Batch Number: 0
              1      4.36e-01     00000 Conjugate Gradient Iteration
              2      1.27e-01     00000 Conjugate Gradient Iteration
              3      2.30e-02     00000 Conjugate Gradient Iteration
              4      3.77e-03     00000 Conjugate Gradient Iteration
              5      4.86e-04     00000 Conjugate Gradient Iteration
              6      6.07e-05     00000 Conjugate Gradient Iteration
              7      4.48e-06     00000 Conjugate Gradient Iteration
              8      3.11e-07     00000 Conjugate Gradient Iteration
              9      2.34e-08     00000 Conjugate Gradient Iteration
             10      2.04e-09     00000 CG Converged
batch 0 complete
Done Calculating Responses
TESTING ORTHOGONALIZATION OF MULTIPOLE BASIS
Max deviation in metric = 4.17e-12
Multipole virts passed orthogonality test
Virts Per Order
        15
        25
 
 --------------------------------------------------------------
 
                    Orbital Energies (a.u.)
 --------------------------------------------------------------
 
 Alpha MOs
 -- Occupied --
-19.2197  -1.1418  -0.6473  -0.5030  -0.4296
 -- Virtual --
  0.0564   0.0815   0.1062   0.1078   0.1843   0.2022   0.2266   0.2353
  0.2465   0.2798   0.3087   0.3350   0.4088   0.4155   0.4478   0.5010
  0.5164   0.5188   0.5753   0.5920   0.6037   0.7128   0.8373   0.8780
  0.9125   1.0085   1.0599   1.1084   1.1762   1.2034   1.4050   1.4426
  1.5024   1.5214   1.5753   1.6507   1.6809   1.9860   2.0147   2.0781
  2.1124   2.3258   2.3678   2.5139   2.5200   2.5428   2.6400   2.6753
  2.7436   2.7675   2.7843   3.0141   3.1797   3.2756   3.3404   3.5108
  3.7860   3.9637   3.9715   4.0005   4.1818   4.2123   4.3384   4.3399
  4.4857   4.6510   4.8727   4.9027   5.3286   5.4461   5.5149   5.8145
  5.9804   6.0477   6.1104   6.4344   6.6185   6.7991   7.1471   7.2020
  7.3142   7.3415   7.4199   7.4271   7.4938   7.5106   7.7437   7.7781
  7.8553   7.9123   7.9167   7.9555   8.0736   8.1618   8.4197   8.6132
  8.6645   8.8333   8.8360   9.0825   9.1140   9.8544   9.9038  10.2926
 10.4086  10.7651  10.8532  10.9948  11.1723  11.2245  11.3701  11.5311
 11.7895  11.8485  11.9229  11.9750  12.3172  12.8970  13.5322  13.6711
 13.6855  14.1204  14.4796  16.6963  16.8342  48.4113 253.3422
 --------------------------------------------------------------
 
          Ground-State Mulliken Net Atomic Charges

     Atom                 Charge (a.u.)
  ----------------------------------------
      1 O                    -0.414906
      2 H                     0.206448
      3 H                     0.208458
  ----------------------------------------
  Sum of atomic charges =     0.000000

 -----------------------------------------------------------------
                    Cartesian Multipole Moments
 -----------------------------------------------------------------
    Charge (ESU x 10^10)
                 0.0000
    Dipole Moment (Debye)
         X      -1.3738      Y       0.2054      Z      -1.2289
       Tot       1.8546
    Quadrupole Moments (Debye-Ang)
        XX      -6.6191     XY      -0.9824     YY      -5.1778
        XZ      -0.3215     YZ      -3.1539     ZZ      -6.6775
    Octopole Moments (Debye-Ang^2)
       XXX      -4.1478    XXY     -10.8141    XYY      -1.0320
       YYY     -26.2299    XXZ      -0.3618    XYZ      -0.6828
       YYZ      -7.7815    XZZ      -1.1121    YZZ     -10.2539
       ZZZ      -1.5421
    Hexadecapole Moments (Debye-Ang^3)
      XXXX      -9.0847   XXXY      -6.4117   XXYY     -20.2694
      XYYY      -2.8232   YYYY     -92.5018   XXXZ      -0.2438
      XXYZ      -0.5988   XYYZ      -1.5789   YYYZ     -18.4738
      XXZZ      -2.9050   XYZZ      -1.7316   YYZZ     -18.0244
      XZZZ      -0.3106   YZZZ      -2.7140   ZZZZ      -7.7820
 -----------------------------------------------------------------
 Total job time:  7.85s(wall), 474.06s(cpu) 
 Tue Jan  2 15:10:27 2024

        *************************************************************
        *                                                           *
        *  Thank you very much for using Q-Chem.  Have a nice day.  *
        *                                                           *
        *************************************************************


 Done Job For Fragment 1
 calling putenv with: QCSCRATCH=/pscratch/sd/h/heindelj 
 calling putenv with: QCLOCALSCR=/tmp 
 calling putenv with: QCTHREADS=64 
 Creating input file /tmp/qchem251423/Frg3.input
 using default PutDataFrgm: nothing
 calling putenv with: QCSCRATCH=/tmp/qchem251423/ 
 calling putenv with: QCLOCALSCR=/tmp/qchem251423/ 
 Spawning Job For Fragment 2
                  Welcome to Q-Chem
     A Quantum Leap Into The Future Of Chemistry


 Q-Chem 6.0, Q-Chem, Inc., Pleasanton, CA (2022)

 License issued to: National Energy Research Scientific Computing Center (site)

 E. Epifanovsky,  A. T. B. Gilbert,  Xintian Feng,  Joonho Lee,  Yuezhi Mao,  
 N. Mardirossian,  P. Pokhilko,  A. White,  M. Wormit,  M. P. Coons,  
 A. L. Dempwolff,  Zhengting Gan,  D. Hait,  P. R. Horn,  L. D. Jacobson,  
 I. Kaliman,  J. Kussmann,  A. W. Lange,  Ka Un Lao,  D. S. Levine,  Jie Liu,  
 S. C. McKenzie,  A. F. Morrison,  K. Nanda,  F. Plasser,  D. R. Rehn,  
 M. L. Vidal,  Zhi-Qiang You,  Ying Zhu,  B. Alam,  B. Albrecht,  
 A. Aldossary,  E. Alguire,  J. H. Andersen,  V. Athavale,  D. Barton,  
 K. Begam,  A. Behn,  N. Bellonzi,  Y. A. Bernard,  E. J. Berquist,  
 H. Burton,  A. Carreras,  K. Carter-Fenk,  Romit Chakraborty,  
 Chandrima Chakravarty,  Junhan Chen,  A. D. Chien,  K. D. Closser,  
 V. Cofer-Shabica,  L. Cunha,  S. Dasgupta,  Jia Deng,  M. de Wergifosse,  
 M. Diedenhofen,  Hainam Do,  S. Ehlert,  Po-Tung Fang,  S. Fatehi,  
 Qingguo Feng,  T. Friedhoff,  B. Ganoe,  J. Gayvert,  Qinghui Ge,  
 G. Gidofalvi,  M. Goldey,  J. Gomes,  C. Gonzalez-Espinoza,  S. Gulania,  
 A. Gunina,  J. A. Gyamfi,  M. W. D. Hanson-Heine,  P. H. P. Harbach,  
 A. W. Hauser,  M. F. Herbst,  M. Hernandez Vera,  M. Hodecker,  
 Z. C. Holden,  S. Houck,  Xunkun Huang,  Kerwin Hui,  B. C. Huynh,  
 K. Ikeda,  M. Ivanov,  Hyunjun Ji,  Zuxin Jin,  Hanjie Jiang,  B. Kaduk,  
 S. Kaehler,  R. Kang,  K. Khistyaev,  Jaehoon Kim,  Yongbin Kim,  
 P. Klunzinger,  Z. Koczor-Benda,  Joong Hoon Koh,  D. Kosenkov,  
 Saikiran Kotaru,  L. Koulias,  T. Kowalczyk,  C. M. Krauter,  K. Kue,  
 A. Kunitsa,  T. Kus,  A. Landau,  K. V. Lawler,  D. Lefrancois,  S. Lehtola,  
 Rain Li,  Shaozhi Li,  Yi-Pei Li,  Jiashu Liang,  M. Liebenthal,  
 Hung-Hsuan Lin,  You-Sheng Lin,  Fenglai Liu,  Kuan-Yu Liu,  
 M. Loipersberger,  A. Luenser,  C. Malbon,  A. Manjanath,  P. Manohar,  
 E. Mansoor,  S. F. Manzer,  Shan-Ping Mao,  A. V. Marenich,  T. Markovich,  
 S. Mason,  F. Matz,  S. A. Maurer,  P. F. McLaughlin,  M. F. S. J. Menger,  
 J.-M. Mewes,  S. A. Mewes,  P. Morgante,  Mohammad Mostafanejad,  
 J. W. Mullinax,  K. J. Oosterbaan,  G. Paran,  V. Parravicini,  
 Alexander C. Paul,  Suranjan K. Paul,  F. Pavosevic,  Zheng Pei,  S. Prager,  
 E. I. Proynov,  E. Ramos,  B. Rana,  A. E. Rask,  A. Rettig,  R. M. Richard,  
 F. Rob,  E. Rossomme,  T. Scheele,  M. Scheurer,  M. Schneider,  
 P. E. Schneider,  N. Sergueev,  S. M. Sharada,  Hengyuan Shen,  
 W. Skomorowski,  D. W. Small,  C. J. Stein,  Yingli Su,  Yu-Chuan Su,  
 E. J. Sundstrom,  Zhen Tao,  J. Thirman,  Hung-Yi Tsai,  T. Tsuchimochi,  
 N. M. Tubman,  C. Utku,  S. P. Veccham,  O. Vydrov,  J. Wenzel,  
 Jonathan Wong,  J. Witte,  A. Yamada,  Chou-Hsun Yang,  Kun Yao,  
 S. Yeganeh,  S. R. Yost,  A. Zech,  F. Zeller,  Igor Ying Zhang,  
 Xing Zhang,  Yu Zhang,  D. Zuev,  A. Aspuru-Guzik,  A. T. Bell,  
 N. A. Besley,  K. B. Bravaya,  B. R. Brooks,  D. Casanova,  Jeng-Da Chai,  
 Hsing-Ta Chen,  S. Coriani,  C. J. Cramer,  A. E. DePrince, III,  
 R. A. DiStasio Jr.,  A. Dreuw,  B. D. Dunietz,  T. R. Furlani,  
 W. A. Goddard III,  S. Grimme,  S. Hammes-Schiffer,  T. Head-Gordon,  
 W. J. Hehre,  Chao-Ping Hsu,  T.-C. Jagau,  Yousung Jung,  A. Klamt,  
 Jing Kong,  D. S. Lambrecht,  Xiangyuan Li,  WanZhen Liang,  N. J. Mayhall,  
 C. W. McCurdy,  J. B. Neaton,  T. Neudecker,  C. Ochsenfeld,  
 J. A. Parkhill,  R. Peverati,  V. A. Rassolov,  Haisheng Ren,  Yihan Shao,  
 L. V. Slipchenko,  R. P. Steele,  J. E. Subotnik,  A. J. W. Thom,  
 A. Tkatchenko,  D. G. Truhlar,  T. Van Voorhis,  Fan Wang,  
 T. A. Wesolowski,  K. B. Whaley,  H. L. Woodcock III,  P. M. Zimmerman,  
 S. Faraji,  P. M. W. Gill,  M. Head-Gordon,  J. M. Herbert,  A. I. Krylov

 Contributors to earlier versions of Q-Chem not listed above: 
 R. D. Adamson,  B. Austin,  R. Baer,  J. Baker,  G. J. O. Beran,  
 K. Brandhorst,  S. T. Brown,  E. F. C. Byrd,  Arup K. Chakraborty,  
 G. K. L. Chan,  Chun-Min Chang,  Yunqing Chen,  C.-L. Cheng,  
 Siu Hung Chien,  D. M. Chipman,  D. L. Crittenden,  H. Dachsel,  
 R. J. Doerksen,  A. D. Dutoi,  R. G. Edgar,  J. Fosso-Tande,  
 L. Fusti-Molnar,  D. Ghosh,  A. Ghysels,  A. Golubeva-Zadorozhnaya,  
 J. Gonthier,  M. S. Gordon,  S. R. Gwaltney,  G. Hawkins,  J. E. Herr,  
 A. Heyden,  S. Hirata,  E. G. Hohenstein,  G. Kedziora,  F. J. Keil,  
 C. Kelley,  Jihan Kim,  R. A. King,  R. Z. Khaliullin,  P. P. Korambath,  
 W. Kurlancheek,  A. Laurent,  A. M. Lee,  M. S. Lee,  S. V. Levchenko,  
 Ching Yeh Lin,  D. Liotard,  E. Livshits,  R. C. Lochan,  I. Lotan,  
 L. A. Martinez-Martinez,  P. E. Maslen,  N. Nair,  D. P. O'Neill,  
 D. Neuhauser,  E. Neuscamman,  C. M. Oana,  R. Olivares-Amaya,  R. Olson,  
 T. M. Perrine,  B. Peters,  P. A. Pieniazek,  A. Prociuk,  Y. M. Rhee,  
 J. Ritchie,  M. A. Rohrdanz,  E. Rosta,  N. J. Russ,  H. F. Schaefer III,  
 M. W. Schmidt,  N. E. Schultz,  S. Sharma,  N. Shenvi,  C. D. Sherrill,  
 A. C. Simmonett,  A. Sodt,  T. Stein,  D. Stuck,  K. S. Thanthiriwatte,  
 V. Vanovschi,  L. Vogt,  Tao Wang,  A. Warshel,  M. A. Watson,  
 C. F. Williams,  Q. Wu,  X. Xu,  Jun Yang,  W. Zhang,  Yan Zhao

   Please cite Q-Chem as follows:
  "Software for the frontiers of quantum chemistry:
   An overview of developments in the Q-Chem 5 package"
   J. Chem. Phys. 155, 084801 (2021)
   https://doi.org/10.1063/5.0055522 (open access)

 Q-Chem 6.0.0 for Intel X86 EM64T Linux

 Parts of Q-Chem use Armadillo 9.900.5 (Nocturnal Misbehaviour).
 http://arma.sourceforge.net/

 Q-Chem begins on Tue Jan  2 15:10:28 2024  

 Host: login27
0

     Scratch files written to /tmp/qchem251423//Frg3//
 Jul222 |scratch|qcdevops|jenkins|workspace|build_RNUM 7470   
 Processing $rem in /global/common/software/nersc/pm-stable/sw/qchem/6.0.0/config/preferences:
 Processing $rem in /global/homes/h/heindelj/.qchemrc:

 Checking the input file for inconsistencies... 	...done.

--------------------------------------------------------------
User input:
--------------------------------------------------------------
$molecule
0 1
 8	-1.5023472885	-0.5852529295	-0.0787944534
 1	-2.0845969667	-0.9883371754	0.5669108972
 1	-0.6548745033	-1.0571773165	-0.0182220803
$end
$rem
EDA2		1
METHOD		WB97X-V
BASIS		DEF2-QZVPPD
XC_GRID		000099000590
NL_GRID		1
UNRESTRICTED		FALSE
MAX_SCF_CYCLES		200
SYMMETRY		FALSE
SYM_IGNORE		TRUE
BASIS_LIN_DEP_THRESH		8
THRESH		14
SCF_CONVERGENCE		7
SCF_PRINT_FRGM		TRUE
!required keywords
JOBTYPE		SP
SYM_IGNORE		TRUE
SUBSYSTEM		TRUE
CHILD_INSTRUCTION		2
GEN_SCFMAN		TRUE
SYM_IGNORE		TRUE
SCF_CONVERGENCE		7
MEM_STATIC		192
MEM_TOTAL		16000
PURECART		1111111
FRGM_METHOD		FALSE
CHILD_MP		1
CHILD_MP_ORDERS		232
EDA2		FALSE
FRZ_RELAX		0
FRZ_RELAX_METHOD		0
EDA_CLS_ELEC		1
EDA_CLS_DISP		0
FRZ_ORTHO_DECOMP		1
ECP		0
$end
--------------------------------------------------------------
 ----------------------------------------------------------------
             Standard Nuclear Orientation (Angstroms)
    I     Atom           X                Y                Z
 ----------------------------------------------------------------
    1      O      -1.5023472885    -0.5852529295    -0.0787944534
    2      H      -2.0845969667    -0.9883371754     0.5669108972
    3      H      -0.6548745033    -1.0571773165    -0.0182220803
 ----------------------------------------------------------------
 Nuclear Repulsion Energy =           9.11544077 hartrees
 There are        5 alpha and        5 beta electrons
 Requested basis set is def2-QZVPPD
 There are 42 shells and 132 basis functions

 Total QAlloc Memory Limit  16000 MB
 Mega-Array Size       188 MB
 MEM_STATIC part       192 MB


                       Distance Matrix (Angstroms)
             O (  1)   H (  2)
   H (  2)  0.958346
   H (  3)  0.971901  1.546359
 
 A cutoff of  1.0D-14 yielded    903 shell pairs
 There are      9017 function pairs (     13005 Cartesian)
 Smallest overlap matrix eigenvalue = 1.37E-04

 Scale SEOQF with 1.000000e-01/1.000000e-01/1.000000e-01

 Standard Electronic Orientation quadrupole field applied
 Nucleus-field energy     =     0.0000000011 hartrees
 Guess from superposition of atomic densities
 Warning:  Energy on first SCF cycle will be non-variational
 SAD guess density has 10.000000 electrons

 -----------------------------------------------------------------------
  General SCF calculation program by
  Eric Jon Sundstrom, Paul Horn, Yuezhi Mao, Dmitri Zuev, Alec White,
  David Stuck, Shaama M.S., Shane Yost, Joonho Lee, David Small,
  Daniel Levine, Susi Lehtola, Hugh Burton, Evgeny Epifanovsky,
  Bang C. Huynh
 -----------------------------------------------------------------------
 Exchange:     0.1670 Hartree-Fock + 1.0000 wB97X-V + LR-HF
 Correlation:  1.0000 wB97X-V
 Using Euler-Maclaurin-Lebedev (99,590) quadrature formula
 Nonlocal Correlation:  VV10 with C = 0.0100 and b = 6.00 and scale = 1.00000
 Grid used for NLC:  SG-1 standard quadrature
Energy prior to optimization (guess energy) = -76.386882889494
Begin Timing: Total SCF Calculation
begin iterations for algorithm: DIIS         
the SCF tolerance is set to 1.00e-07
    1     -76.3868828895      5.69e-03     00000 
    2     -76.3875987048      6.23e-03     00000 
    3     -76.4404565813      2.68e-04     00000 
    4     -76.4405615023      6.87e-05     00000 
    5     -76.4405729468      8.63e-06     00000 
    6     -76.4405732928      1.16e-06     00000 
    7     -76.4405733040      2.22e-07     00000 
    8     -76.4405733044      3.15e-08     00000 Convergence criterion met
Timing for Total SCF: 2.00s (wall), 148.71s (cpu)
Multipole orders to be included
        2
        3
computing dipole RHS
computing quadrupole RHS
total number of RHS in solve_reponses: 8
RHS batch sizes
        8
Beginning Block Conjugate Gradient Iterations. Batch Number: 0
              1      4.41e-01     00000 Conjugate Gradient Iteration
              2      1.35e-01     00000 Conjugate Gradient Iteration
              3      2.53e-02     00000 Conjugate Gradient Iteration
              4      4.09e-03     00000 Conjugate Gradient Iteration
              5      5.18e-04     00000 Conjugate Gradient Iteration
              6      6.47e-05     00000 Conjugate Gradient Iteration
              7      4.90e-06     00000 Conjugate Gradient Iteration
              8      3.39e-07     00000 Conjugate Gradient Iteration
              9      2.55e-08     00000 Conjugate Gradient Iteration
             10      2.21e-09     00000 CG Converged
batch 0 complete
Done Calculating Responses
TESTING ORTHOGONALIZATION OF MULTIPOLE BASIS
Max deviation in metric = 4.05e-12
Multipole virts passed orthogonality test
Virts Per Order
        15
        25
 
 --------------------------------------------------------------
 
                    Orbital Energies (a.u.)
 --------------------------------------------------------------
 
 Alpha MOs
 -- Occupied --
-19.2195  -1.1417  -0.6482  -0.5024  -0.4295
 -- Virtual --
  0.0565   0.0815   0.1062   0.1078   0.1844   0.2020   0.2264   0.2355
  0.2468   0.2797   0.3088   0.3348   0.4092   0.4154   0.4475   0.5004
  0.5165   0.5188   0.5754   0.5927   0.6042   0.7127   0.8374   0.8782
  0.9142   1.0076   1.0601   1.1090   1.1764   1.2032   1.4053   1.4421
  1.5025   1.5209   1.5769   1.6511   1.6806   1.9894   2.0151   2.0769
  2.1124   2.3240   2.3716   2.5128   2.5192   2.5426   2.6401   2.6747
  2.7454   2.7679   2.7857   3.0194   3.1747   3.2745   3.3411   3.5111
  3.7864   3.9627   3.9707   3.9995   4.1839   4.2097   4.3394   4.3402
  4.4870   4.6511   4.8751   4.9054   5.3297   5.4507   5.5147   5.8203
  5.9816   6.0492   6.1070   6.4282   6.6273   6.7972   7.1557   7.2033
  7.3166   7.3433   7.4187   7.4267   7.4918   7.5105   7.7434   7.7786
  7.8561   7.9113   7.9134   7.9565   8.0706   8.1603   8.4212   8.6184
  8.6684   8.8367   8.8385   9.0869   9.1065   9.8454   9.8994  10.2917
 10.4184  10.7674  10.8612  10.9933  11.1718  11.2259  11.3690  11.5276
 11.7938  11.8521  11.9234  11.9850  12.3150  12.8936  13.5352  13.6717
 13.6864  14.1254  14.4854  16.7014  16.8370  48.4131 253.3442
 --------------------------------------------------------------
 
          Ground-State Mulliken Net Atomic Charges

     Atom                 Charge (a.u.)
  ----------------------------------------
      1 O                    -0.415428
      2 H                     0.206711
      3 H                     0.208717
  ----------------------------------------
  Sum of atomic charges =     0.000000

 -----------------------------------------------------------------
                    Cartesian Multipole Moments
 -----------------------------------------------------------------
    Charge (ESU x 10^10)
                -0.0000
    Dipole Moment (Debye)
         X       0.4188      Y      -1.3999      Z       1.1325
       Tot       1.8487
    Quadrupole Moments (Debye-Ang)
        XX      -6.0237     XY       1.4271     YY      -5.1599
        XZ      -2.7022     YZ      -1.2926     ZZ      -6.8280
    Octopole Moments (Debye-Ang^2)
       XXX      24.7273    XXY       1.1346    XYY       8.4424
       YYY      11.6754    XXZ       6.0988    XYZ       2.8418
       YYZ       1.5085    XZZ       9.7231    YZZ       4.2463
       ZZZ       0.9412
    Hexadecapole Moments (Debye-Ang^3)
      XXXX     -79.4686   XXXY     -10.6882   XXYY     -16.9955
      XYYY     -18.1527   YYYY     -23.6166   XXXZ     -13.2915
      XXYZ      -6.0971   XYYZ      -3.0740   YYYZ      -1.5678
      XXZZ     -16.2439   XYZZ      -5.8335   YYZZ      -5.2009
      XZZZ      -1.5827   YZZZ      -0.6765   ZZZZ      -7.7337
 -----------------------------------------------------------------
 Total job time:  7.99s(wall), 482.57s(cpu) 
 Tue Jan  2 15:10:36 2024

        *************************************************************
        *                                                           *
        *  Thank you very much for using Q-Chem.  Have a nice day.  *
        *                                                           *
        *************************************************************


 Done Job For Fragment 2
 calling putenv with: QCSCRATCH=/pscratch/sd/h/heindelj 
 calling putenv with: QCLOCALSCR=/tmp 
 calling putenv with: QCTHREADS=64 
Doing General SCFMI
 Exchange:     0.1670 Hartree-Fock + 1.0000 wB97X-V + LR-HF
 Correlation:  1.0000 wB97X-V
 Using Euler-Maclaurin-Lebedev (99,590) quadrature formula
 Nonlocal Correlation:  VV10 with C = 0.0100 and b = 6.00 and scale = 1.00000
 Grid used for NLC:  SG-1 standard quadrature
performing fock build before subrot guess so that all methods have access
Printing subrot_rss_gen Method Specification:
Occupied Subspace Method is 0
Virtual Subspace Method is 0
Energy of the unrelaxed supersystem initial determinant -229.327968101803
write pseudocanon occs and virts to disk
write pseudocanon orbital energies to disk
Tolerance of ortho_decomp_scf: 1.00e-06
GDM subspace size: 20
Beginning the Orthogonal Decomposition of the Initial Supersystem Wavefunction
    1    -229.2059911250      2.30e-01     ortho_decomp Preconditoned Steepest Descent
    2    -229.2195982925      4.16e-03     ortho_decomp BFGS Step
    3    -229.2196255038      3.22e-04     ortho_decomp BFGS Step
    4    -229.2196255599      1.08e-05     ortho_decomp BFGS Step
    5    -229.2196255600      3.02e-07     ortho_decomp 00000 Convergence criterion met
 Hartree-Fock
 Hartree-Fock
 Hartree-Fock
 Hartree-Fock
Doing General SCFMI
 Exchange:     0.1670 Hartree-Fock + 1.0000 wB97X-V + LR-HF
 Correlation:  1.0000 wB97X-V
 Using Euler-Maclaurin-Lebedev (99,590) quadrature formula
 Nonlocal Correlation:  VV10 with C = 0.0100 and b = 6.00 and scale = 1.00000
 Grid used for NLC:  SG-1 standard quadrature
performing fock build at end of subrot_r(subrot) constructor so that all methods have access
<S^2> of initial wavefunction before polarization iterations 0.0000000000
Beginning iterations for the determination of the polarized wavefunction
Energy prior to optimization (guess energy) = -229.327968101803
Begin Timing: Total SCF Calculation
begin iterations for algorithm: DIIS         
the SCF tolerance is set to 1.00e-07
    1    -229.3279681018      1.11e-03     00000 
    2    -229.3353986205      3.12e-04     00000 
    3    -229.3361661773      1.38e-04     00000 
    4    -229.3362838131      6.73e-05     00000 
    5    -229.3363063964      1.84e-05     00000 
    6    -229.3363102265      3.48e-06     00000 
    7    -229.3363103915      8.19e-07     00000 
    8    -229.3363103982      3.40e-07     00000 
    9    -229.3363103987      1.74e-07     00000 
   10    -229.3363103989      2.77e-08     00000 Convergence criterion met
write pseudocanon occs and virts to disk
write pseudocanon orbital energies to disk
Timing for Total SCF: 21.00s (wall), 1095.24s (cpu)
<S^2> of polarized wavefunction after polarization iterations 0.0000000000
relaxing scfmi constraint to allow all rotations in the entire AO span
Doing General SCFMI
 Exchange:     0.1670 Hartree-Fock + 1.0000 wB97X-V + LR-HF
 Correlation:  1.0000 wB97X-V
 Using Euler-Maclaurin-Lebedev (99,590) quadrature formula
 Nonlocal Correlation:  VV10 with C = 0.0100 and b = 6.00 and scale = 1.00000
 Grid used for NLC:  SG-1 standard quadrature
performing fock build at end of subrot_r(subrot) constructor so that all methods have access
<S^2> of polarized wavefunction before ct-allowed iterations 0.0000000000
Beginning iterations for the determination of the CT-Allowed wavefunction
Energy prior to optimization (guess energy) = -229.336310398862
Begin Timing: Total SCF Calculation
begin iterations for algorithm: DIIS         
the SCF tolerance is set to 1.00e-07
    1    -229.3363103989      3.45e-04     00000 
    2    -229.3469825742      5.49e-05     00000 
    3    -229.3474744383      1.42e-05     00000 
    4    -229.3474919101      1.08e-05     00000 
    5    -229.3474986335      1.06e-06     00000 
    6    -229.3474988485      2.48e-07     00000 
    7    -229.3474988585      7.84e-08     00000 Convergence criterion met
write pseudocanon occs and virts to disk
write pseudocanon orbital energies to disk
Timing for Total SCF: 17.00s (wall), 856.64s (cpu)
<S^2> of ct_allowed wavefunction after ct-allowed iterations 0.0000000000

================================
        Results of EDA2         
================================
Basic EDA Quantities
--------------------
Fragment Energies (Ha):
1  -76.4405621223
2  -76.4405856291
3  -76.4405733044
--------------------
  E_prp (kJ/mol) = 0.0000
  E_frz (kJ/mol) = -16.4018
  E_pol (kJ/mol) = -21.9030
  E_vct (kJ/mol) = -29.3756
  E_int (kJ/mol) = -67.6804
--------------------


Decomposition of frozen interaction energy
--------------------
  --------------------
  Orthogonal Frozen Decomposition:
  --------------------
     E_elec   (ELEC)   (kJ/mol) = -212.0429
     E_pauli  (PAULI)  (kJ/mol) = 221.3596
     E_disp   (DISP)   (kJ/mol) = -25.7185
  --------------------
  Classical Frozen Decomposition:
  --------------------
     E_cls_elec  (CLS ELEC)  (kJ/mol) = -113.4262
     E_mod_pauli (MOD PAULI) (kJ/mol) = 122.7429 (FRZ - CLS ELEC - DISP)
     E_disp      (DISP)      (kJ/mol) = -25.7185
  --------------------
--------------------

Simplified EDA Summary (kJ/mol)
--------------------
 PREPARATION      0.0000
 FROZEN           -16.4018 (ELEC + PAULI + DISP)
[ELEC + PAULI = 9.3167, DISP = -25.7185]
 POLARIZATION    -21.9030
 CHARGE TRANSFER -29.3756
 TOTAL           -67.6804     (PRP + FRZ + POL + CT)
--------------------
 
 --------------------------------------------------------------
 
                    Orbital Energies (a.u.)
 --------------------------------------------------------------
 
 Alpha MOs
 -- Occupied --
-19.2169 -19.2157 -19.2149  -1.1538  -1.1369  -1.1355  -0.6709  -0.6399
 -0.6381  -0.5222  -0.5166  -0.4865  -0.4386  -0.4307  -0.4254
 -- Virtual --
  0.0491   0.0616   0.0623   0.0832   0.1018   0.1046   0.1139   0.1165
  0.1214   0.1489   0.1824   0.1865   0.2001   0.2221   0.2255   0.2278
  0.2422   0.2525   0.2547   0.2625   0.2658   0.2848   0.3008   0.3082
  0.3114   0.3158   0.3279   0.3392   0.3573   0.3637   0.3757   0.3823
  0.3872   0.3902   0.4173   0.4271   0.4333   0.4626   0.4803   0.4872
  0.5218   0.5273   0.5328   0.5417   0.5436   0.5576   0.5754   0.5841
  0.6000   0.6166   0.6256   0.6361   0.6522   0.6539   0.6676   0.7010
  0.7074   0.7081   0.7171   0.7441   0.7486   0.7709   0.7775   0.8087
  0.8377   0.8758   0.9184   0.9722   0.9781   0.9915   0.9987   1.0210
  1.0273   1.0570   1.0705   1.0998   1.1113   1.1460   1.1639   1.1757
  1.1891   1.1988   1.2187   1.2384   1.2474   1.3005   1.3127   1.3278
  1.4098   1.4236   1.4761   1.5054   1.5153   1.5188   1.5320   1.5649
  1.5903   1.6238   1.6285   1.6639   1.6767   1.6877   1.6905   1.7074
  1.7221   1.7588   1.7916   1.8090   1.8997   1.9135   2.0134   2.0579
  2.0644   2.0895   2.1413   2.1421   2.2141   2.2257   2.2701   2.2954
  2.3120   2.3488   2.3826   2.3997   2.4080   2.4474   2.4526   2.4704
  2.5019   2.5895   2.6035   2.6166   2.6236   2.6679   2.6857   2.7016
  2.7153   2.7249   2.7425   2.7735   2.7815   2.7897   2.8262   2.8478
  2.8951   2.9065   2.9122   2.9432   2.9535   2.9778   3.0140   3.0478
  3.0530   3.1238   3.2106   3.2411   3.2475   3.3948   3.4077   3.4477
  3.4501   3.4960   3.5067   3.5733   3.5881   3.6738   3.6837   3.7061
  3.8682   3.8844   3.9111   3.9809   4.0170   4.0223   4.0332   4.0731
  4.0903   4.1609   4.1942   4.2066   4.2571   4.2612   4.3038   4.3162
  4.3812   4.4165   4.4683   4.4928   4.4963   4.5502   4.5638   4.6046
  4.6845   4.7025   4.7382   4.7865   4.8252   4.8595   4.9495   4.9620
  5.0179   5.1248   5.1499   5.2635   5.4805   5.5051   5.5134   5.6390
  5.6460   5.6531   5.6721   5.6804   5.8415   5.8615   5.8912   6.0094
  6.0554   6.0618   6.0721   6.0833   6.0987   6.1627   6.1730   6.1877
  6.2335   6.4531   6.5408   6.5591   6.6374   6.6633   6.6689   6.8562
  6.9147   6.9225   7.0946   7.2089   7.2109   7.2727   7.2792   7.2865
  7.4077   7.4264   7.4357   7.4621   7.4820   7.4874   7.5128   7.5286
  7.5314   7.5600   7.5701   7.5873   7.6264   7.6445   7.6649   7.6676
  7.7442   7.7642   7.8102   7.8441   7.8540   7.8602   7.8862   7.9028
  7.9383   7.9727   7.9853   7.9978   8.0213   8.0374   8.0515   8.0651
  8.0797   8.1075   8.1395   8.1770   8.2107   8.2928   8.3654   8.3823
  8.5090   8.5412   8.5728   8.5825   8.6115   8.6887   8.7063   8.7180
  8.7788   8.7831   8.8096   8.8701   8.9010   8.9082   8.9155   8.9478
  8.9772   9.1207   9.1516   9.1579   9.2089   9.2208   9.2900   9.8696
  9.8856   9.8958   9.9775   9.9937  10.0530  10.3560  10.3946  10.4341
 10.4661  10.4715  10.4773  10.7825  10.8395  10.8521  10.8875  10.9385
 10.9428  11.0424  11.0642  11.0850  11.2406  11.2684  11.2765  11.2839
 11.3113  11.3339  11.4458  11.4543  11.5163  11.6051  11.6555  11.6598
 11.8310  11.8506  11.8697  11.9672  11.9712  11.9810  11.9963  12.0188
 12.0595  12.0780  12.1034  12.3492  12.4394  12.4611  12.4880  12.9361
 12.9519  12.9608  13.5581  13.5683  13.5786  13.7356  13.7451  13.7706
 13.7847  13.7893  13.7980  14.1740  14.1902  14.2032  14.5874  14.5935
 14.6476  16.8185  16.8533  16.8628  16.9038  16.9285  16.9590  48.5549
 48.5601  48.5976 253.5077 253.5149 253.5704
 --------------------------------------------------------------
 
          Ground-State Mulliken Net Atomic Charges

     Atom                 Charge (a.u.)
  ----------------------------------------
      1 O                    -0.459273
      2 H                     0.232628
      3 H                     0.224032
      4 O                    -0.459046
      5 H                     0.222949
      6 H                     0.238430
      7 O                    -0.455461
      8 H                     0.220730
      9 H                     0.235009
  ----------------------------------------
  Sum of atomic charges =     0.000000

 -----------------------------------------------------------------
                    Cartesian Multipole Moments
 -----------------------------------------------------------------
    Charge (ESU x 10^10)
                 0.0000
    Dipole Moment (Debye)
         X      -0.0089      Y      -0.1202      Z       1.0416
       Tot       1.0486
    Quadrupole Moments (Debye-Ang)
        XX     -16.7967     XY       0.1161     YY     -17.4295
        XZ      -0.5452     YZ      -6.1806     ZZ     -20.2739
    Octopole Moments (Debye-Ang^2)
       XXX       1.2590    XXY      -6.5659    XYY      -1.1128
       YYY       4.3620    XXZ      11.0184    XYZ      -1.2108
       YYZ      -3.9433    XZZ      -0.0853    YZZ       0.3085
       ZZZ       0.5414
    Hexadecapole Moments (Debye-Ang^3)
      XXXX    -153.5567   XXXY      -0.2297   XXYY     -50.9707
      XYYY       0.3372   YYYY    -158.8319   XXXZ      -3.0822
      XXYZ     -13.4911   XYYZ      -0.0610   YYYZ     -23.9834
      XXZZ     -32.2303   XYZZ       0.2515   YYZZ     -31.4710
      XZZZ      -0.2582   YZZZ      -4.7863   ZZZZ     -23.0053
 -----------------------------------------------------------------
 Total job time:  120.50s(wall), 4889.89s(cpu) 
 Tue Jan  2 15:12:11 2024

        *************************************************************
        *                                                           *
        *  Thank you very much for using Q-Chem.  Have a nice day.  *
        *                                                           *
        *************************************************************



Running Job 2 of 4 w3_uud_wb97xv_qzvppd_eda_mbe.in
qchem w3_uud_wb97xv_qzvppd_eda_mbe.in_251423.1 /tmp/qchem251423/ 0
/global/common/software/nersc/pm-stable/sw/qchem/6.0.0/exe/qcprog.exe_s w3_uud_wb97xv_qzvppd_eda_mbe.in_251423.1 /tmp/qchem251423/
                  Welcome to Q-Chem
     A Quantum Leap Into The Future Of Chemistry


 Q-Chem 6.0, Q-Chem, Inc., Pleasanton, CA (2022)

 License issued to: National Energy Research Scientific Computing Center (site)

 E. Epifanovsky,  A. T. B. Gilbert,  Xintian Feng,  Joonho Lee,  Yuezhi Mao,  
 N. Mardirossian,  P. Pokhilko,  A. White,  M. Wormit,  M. P. Coons,  
 A. L. Dempwolff,  Zhengting Gan,  D. Hait,  P. R. Horn,  L. D. Jacobson,  
 I. Kaliman,  J. Kussmann,  A. W. Lange,  Ka Un Lao,  D. S. Levine,  Jie Liu,  
 S. C. McKenzie,  A. F. Morrison,  K. Nanda,  F. Plasser,  D. R. Rehn,  
 M. L. Vidal,  Zhi-Qiang You,  Ying Zhu,  B. Alam,  B. Albrecht,  
 A. Aldossary,  E. Alguire,  J. H. Andersen,  V. Athavale,  D. Barton,  
 K. Begam,  A. Behn,  N. Bellonzi,  Y. A. Bernard,  E. J. Berquist,  
 H. Burton,  A. Carreras,  K. Carter-Fenk,  Romit Chakraborty,  
 Chandrima Chakravarty,  Junhan Chen,  A. D. Chien,  K. D. Closser,  
 V. Cofer-Shabica,  L. Cunha,  S. Dasgupta,  Jia Deng,  M. de Wergifosse,  
 M. Diedenhofen,  Hainam Do,  S. Ehlert,  Po-Tung Fang,  S. Fatehi,  
 Qingguo Feng,  T. Friedhoff,  B. Ganoe,  J. Gayvert,  Qinghui Ge,  
 G. Gidofalvi,  M. Goldey,  J. Gomes,  C. Gonzalez-Espinoza,  S. Gulania,  
 A. Gunina,  J. A. Gyamfi,  M. W. D. Hanson-Heine,  P. H. P. Harbach,  
 A. W. Hauser,  M. F. Herbst,  M. Hernandez Vera,  M. Hodecker,  
 Z. C. Holden,  S. Houck,  Xunkun Huang,  Kerwin Hui,  B. C. Huynh,  
 K. Ikeda,  M. Ivanov,  Hyunjun Ji,  Zuxin Jin,  Hanjie Jiang,  B. Kaduk,  
 S. Kaehler,  R. Kang,  K. Khistyaev,  Jaehoon Kim,  Yongbin Kim,  
 P. Klunzinger,  Z. Koczor-Benda,  Joong Hoon Koh,  D. Kosenkov,  
 Saikiran Kotaru,  L. Koulias,  T. Kowalczyk,  C. M. Krauter,  K. Kue,  
 A. Kunitsa,  T. Kus,  A. Landau,  K. V. Lawler,  D. Lefrancois,  S. Lehtola,  
 Rain Li,  Shaozhi Li,  Yi-Pei Li,  Jiashu Liang,  M. Liebenthal,  
 Hung-Hsuan Lin,  You-Sheng Lin,  Fenglai Liu,  Kuan-Yu Liu,  
 M. Loipersberger,  A. Luenser,  C. Malbon,  A. Manjanath,  P. Manohar,  
 E. Mansoor,  S. F. Manzer,  Shan-Ping Mao,  A. V. Marenich,  T. Markovich,  
 S. Mason,  F. Matz,  S. A. Maurer,  P. F. McLaughlin,  M. F. S. J. Menger,  
 J.-M. Mewes,  S. A. Mewes,  P. Morgante,  Mohammad Mostafanejad,  
 J. W. Mullinax,  K. J. Oosterbaan,  G. Paran,  V. Parravicini,  
 Alexander C. Paul,  Suranjan K. Paul,  F. Pavosevic,  Zheng Pei,  S. Prager,  
 E. I. Proynov,  E. Ramos,  B. Rana,  A. E. Rask,  A. Rettig,  R. M. Richard,  
 F. Rob,  E. Rossomme,  T. Scheele,  M. Scheurer,  M. Schneider,  
 P. E. Schneider,  N. Sergueev,  S. M. Sharada,  Hengyuan Shen,  
 W. Skomorowski,  D. W. Small,  C. J. Stein,  Yingli Su,  Yu-Chuan Su,  
 E. J. Sundstrom,  Zhen Tao,  J. Thirman,  Hung-Yi Tsai,  T. Tsuchimochi,  
 N. M. Tubman,  C. Utku,  S. P. Veccham,  O. Vydrov,  J. Wenzel,  
 Jonathan Wong,  J. Witte,  A. Yamada,  Chou-Hsun Yang,  Kun Yao,  
 S. Yeganeh,  S. R. Yost,  A. Zech,  F. Zeller,  Igor Ying Zhang,  
 Xing Zhang,  Yu Zhang,  D. Zuev,  A. Aspuru-Guzik,  A. T. Bell,  
 N. A. Besley,  K. B. Bravaya,  B. R. Brooks,  D. Casanova,  Jeng-Da Chai,  
 Hsing-Ta Chen,  S. Coriani,  C. J. Cramer,  A. E. DePrince, III,  
 R. A. DiStasio Jr.,  A. Dreuw,  B. D. Dunietz,  T. R. Furlani,  
 W. A. Goddard III,  S. Grimme,  S. Hammes-Schiffer,  T. Head-Gordon,  
 W. J. Hehre,  Chao-Ping Hsu,  T.-C. Jagau,  Yousung Jung,  A. Klamt,  
 Jing Kong,  D. S. Lambrecht,  Xiangyuan Li,  WanZhen Liang,  N. J. Mayhall,  
 C. W. McCurdy,  J. B. Neaton,  T. Neudecker,  C. Ochsenfeld,  
 J. A. Parkhill,  R. Peverati,  V. A. Rassolov,  Haisheng Ren,  Yihan Shao,  
 L. V. Slipchenko,  R. P. Steele,  J. E. Subotnik,  A. J. W. Thom,  
 A. Tkatchenko,  D. G. Truhlar,  T. Van Voorhis,  Fan Wang,  
 T. A. Wesolowski,  K. B. Whaley,  H. L. Woodcock III,  P. M. Zimmerman,  
 S. Faraji,  P. M. W. Gill,  M. Head-Gordon,  J. M. Herbert,  A. I. Krylov

 Contributors to earlier versions of Q-Chem not listed above: 
 R. D. Adamson,  B. Austin,  R. Baer,  J. Baker,  G. J. O. Beran,  
 K. Brandhorst,  S. T. Brown,  E. F. C. Byrd,  Arup K. Chakraborty,  
 G. K. L. Chan,  Chun-Min Chang,  Yunqing Chen,  C.-L. Cheng,  
 Siu Hung Chien,  D. M. Chipman,  D. L. Crittenden,  H. Dachsel,  
 R. J. Doerksen,  A. D. Dutoi,  R. G. Edgar,  J. Fosso-Tande,  
 L. Fusti-Molnar,  D. Ghosh,  A. Ghysels,  A. Golubeva-Zadorozhnaya,  
 J. Gonthier,  M. S. Gordon,  S. R. Gwaltney,  G. Hawkins,  J. E. Herr,  
 A. Heyden,  S. Hirata,  E. G. Hohenstein,  G. Kedziora,  F. J. Keil,  
 C. Kelley,  Jihan Kim,  R. A. King,  R. Z. Khaliullin,  P. P. Korambath,  
 W. Kurlancheek,  A. Laurent,  A. M. Lee,  M. S. Lee,  S. V. Levchenko,  
 Ching Yeh Lin,  D. Liotard,  E. Livshits,  R. C. Lochan,  I. Lotan,  
 L. A. Martinez-Martinez,  P. E. Maslen,  N. Nair,  D. P. O'Neill,  
 D. Neuhauser,  E. Neuscamman,  C. M. Oana,  R. Olivares-Amaya,  R. Olson,  
 T. M. Perrine,  B. Peters,  P. A. Pieniazek,  A. Prociuk,  Y. M. Rhee,  
 J. Ritchie,  M. A. Rohrdanz,  E. Rosta,  N. J. Russ,  H. F. Schaefer III,  
 M. W. Schmidt,  N. E. Schultz,  S. Sharma,  N. Shenvi,  C. D. Sherrill,  
 A. C. Simmonett,  A. Sodt,  T. Stein,  D. Stuck,  K. S. Thanthiriwatte,  
 V. Vanovschi,  L. Vogt,  Tao Wang,  A. Warshel,  M. A. Watson,  
 C. F. Williams,  Q. Wu,  X. Xu,  Jun Yang,  W. Zhang,  Yan Zhao

   Please cite Q-Chem as follows:
  "Software for the frontiers of quantum chemistry:
   An overview of developments in the Q-Chem 5 package"
   J. Chem. Phys. 155, 084801 (2021)
   https://doi.org/10.1063/5.0055522 (open access)

 Q-Chem 6.0.0 for Intel X86 EM64T Linux

 Parts of Q-Chem use Armadillo 9.900.5 (Nocturnal Misbehaviour).
 http://arma.sourceforge.net/

 Q-Chem begins on Tue Jan  2 15:12:11 2024  

 Host: login27
0

     Scratch files written to /tmp/qchem251423//
 Jul222 |scratch|qcdevops|jenkins|workspace|build_RNUM 7470   
 Processing $rem in /global/common/software/nersc/pm-stable/sw/qchem/6.0.0/config/preferences:
 Processing $rem in /global/homes/h/heindelj/.qchemrc:

 Q-Chem warning in module libgen/rem_setup.C, line 3291:

 Neither GIA nor STOLL is specified by user. Use STOLL as the default


 Checking the input file for inconsistencies... 	...done.

--------------------------------------------------------------
User input:
--------------------------------------------------------------
$molecule
0 1
--
0 1
O 1.2634833087 -0.9994279931 -0.0915952238
H 1.2205429648 -0.0311115278 -0.0102065649
H 1.9155981039 -1.2951623344 0.5453650621
--
0 1
O 0.2369155056 1.5926027402 0.1073482064
H 0.1965341921 2.2355764378 -0.6026117034
H -0.5845213166 1.0752970988 0.0498088602
$end

$rem
JOBTYPE EDA
EDA2 1
method wB97X-V
BASIS def2-qzvppd
XC_GRID 000099000590
NL_GRID 1
UNRESTRICTED FALSE
MAX_SCF_CYCLES 200
SYMMETRY FALSE
SYM_IGNORE TRUE
mem_total  16000
BASIS_LIN_DEP_THRESH 8
THRESH 14
SCF_CONVERGENCE 7
SCF_PRINT_FRGM TRUE
$end

--------------------------------------------------------------
 ----------------------------------------------------------------
             Standard Nuclear Orientation (Angstroms)
    I     Atom           X                Y                Z
 ----------------------------------------------------------------
    1      O       1.2634833087    -0.9994279931    -0.0915952238
    2      H       1.2205429648    -0.0311115278    -0.0102065649
    3      H       1.9155981039    -1.2951623344     0.5453650621
    4      O       0.2369155056     1.5926027402     0.1073482064
    5      H       0.1965341921     2.2355764378    -0.6026117034
    6      H      -0.5845213166     1.0752970988     0.0498088602
 ----------------------------------------------------------------
 Nuclear Repulsion Energy =          37.31246661 hartrees
 There are       10 alpha and       10 beta electrons
 Requested basis set is def2-QZVPPD
 There are 84 shells and 264 basis functions

 Total QAlloc Memory Limit  16000 MB
 Mega-Array Size       188 MB
 MEM_STATIC part       192 MB


                       Distance Matrix (Angstroms)
             O (  1)   H (  2)   H (  3)   O (  4)   H (  5)
   H (  2)  0.972679
   H (  3)  0.958348  1.545829
   O (  4)  2.795003  1.902049  3.368831
   H (  5)  3.444528  2.556836  4.091350  0.958691
   H (  6)  2.782014  2.118018  3.480697  0.972458  1.543356
 
 A cutoff of  1.0D-14 yielded   3392 shell pairs
 There are     33732 function pairs (     48389 Cartesian)
 Smallest overlap matrix eigenvalue = 7.90E-05

 Scale SEOQF with 1.000000e-01/1.000000e-01/1.000000e-01

 Standard Electronic Orientation quadrupole field applied
 Nucleus-field energy     =     0.0000000032 hartrees

 -----------------------------------------------------------------------
  General SCF calculation program by
  Eric Jon Sundstrom, Paul Horn, Yuezhi Mao, Dmitri Zuev, Alec White,
  David Stuck, Shaama M.S., Shane Yost, Joonho Lee, David Small,
  Daniel Levine, Susi Lehtola, Hugh Burton, Evgeny Epifanovsky,
  Bang C. Huynh
 -----------------------------------------------------------------------
================================================================
                 ALMO-EDA with the EDA2 driver                  
================================================================
 The second-generation ALMO-EDA (for DFT):                      
 P. R. Horn, Y. Mao and M. Head-Gordon, PCCP, 18, 23067 (2016)  
 Y. Mao et al. Annu. Rev. Phys. Chem. 72, 641 (2021)            
 Decomposition of the frozen energy:                            
 P. R. Horn, Y. Mao and M. Head-Gordon, JCP, 144, 114107 (2016) 
 FERF model for polarization:                                   
 P. R. Horn and M. Head-Gordon, JCP, 143, 114111 (2015)         
================================================================
 Using eda2 option set 1
 Option set summary: Frozen orbital wavefunction, initial wavefunction decomposition, and nDQ polarization.
--------------------------------
Printing EDA Options
--------------------------------
eda_child_super_basis      0
fragmo_guess_mode          0
child_mp                   1
child_mp_orders            232
cls_elec                   1
cls_disp                   0
scfmi_mode                 1
scfmi_occs                 0
scfmi_virts                0
frz_relax                  0
frz_relax_method           0
dc_pen_start               0
dc_pen_conv                0
dc_pen_increment           0
dc_pen_steps               0
dc_pen_thresh_factor       0
dc_pen_pre_newton_thresh   0
frz_ortho_decomp           1
frz_ortho_decomp_conv      6
plot_mo_ortho_frz          0
frgm_method                2
scfmi_freeze_ss            0
separate_rehyb             0
plot_diff_den              0
eda_nocv                   0
eda_vct_relax              1
disp_free_x                0
disp_free_c                0
eda_bsse                   0
eda_pct_a                  0
eda_covp                   0
--------------------------------
 Attempting to make child job directory: /tmp/qchem251423//Frg1/
 Failed to make child job directory:     /tmp/qchem251423//Frg1/
 Attempting to make child job directory: /tmp/qchem251423//Frg2/
 Failed to make child job directory:     /tmp/qchem251423//Frg2/
 Creating input file /tmp/qchem251423/Frg1.input
 using default PutDataFrgm: nothing
 calling putenv with: QCSCRATCH=/tmp/qchem251423/ 
 calling putenv with: QCLOCALSCR=/tmp/qchem251423/ 
 Spawning Job For Fragment 0
                  Welcome to Q-Chem
     A Quantum Leap Into The Future Of Chemistry


 Q-Chem 6.0, Q-Chem, Inc., Pleasanton, CA (2022)

 License issued to: National Energy Research Scientific Computing Center (site)

 E. Epifanovsky,  A. T. B. Gilbert,  Xintian Feng,  Joonho Lee,  Yuezhi Mao,  
 N. Mardirossian,  P. Pokhilko,  A. White,  M. Wormit,  M. P. Coons,  
 A. L. Dempwolff,  Zhengting Gan,  D. Hait,  P. R. Horn,  L. D. Jacobson,  
 I. Kaliman,  J. Kussmann,  A. W. Lange,  Ka Un Lao,  D. S. Levine,  Jie Liu,  
 S. C. McKenzie,  A. F. Morrison,  K. Nanda,  F. Plasser,  D. R. Rehn,  
 M. L. Vidal,  Zhi-Qiang You,  Ying Zhu,  B. Alam,  B. Albrecht,  
 A. Aldossary,  E. Alguire,  J. H. Andersen,  V. Athavale,  D. Barton,  
 K. Begam,  A. Behn,  N. Bellonzi,  Y. A. Bernard,  E. J. Berquist,  
 H. Burton,  A. Carreras,  K. Carter-Fenk,  Romit Chakraborty,  
 Chandrima Chakravarty,  Junhan Chen,  A. D. Chien,  K. D. Closser,  
 V. Cofer-Shabica,  L. Cunha,  S. Dasgupta,  Jia Deng,  M. de Wergifosse,  
 M. Diedenhofen,  Hainam Do,  S. Ehlert,  Po-Tung Fang,  S. Fatehi,  
 Qingguo Feng,  T. Friedhoff,  B. Ganoe,  J. Gayvert,  Qinghui Ge,  
 G. Gidofalvi,  M. Goldey,  J. Gomes,  C. Gonzalez-Espinoza,  S. Gulania,  
 A. Gunina,  J. A. Gyamfi,  M. W. D. Hanson-Heine,  P. H. P. Harbach,  
 A. W. Hauser,  M. F. Herbst,  M. Hernandez Vera,  M. Hodecker,  
[...]
 A. Heyden,  S. Hirata,  E. G. Hohenstein,  G. Kedziora,  F. J. Keil,  
 C. Kelley,  Jihan Kim,  R. A. King,  R. Z. Khaliullin,  P. P. Korambath,  
 W. Kurlancheek,  A. Laurent,  A. M. Lee,  M. S. Lee,  S. V. Levchenko,  
 Ching Yeh Lin,  D. Liotard,  E. Livshits,  R. C. Lochan,  I. Lotan,  
 L. A. Martinez-Martinez,  P. E. Maslen,  N. Nair,  D. P. O'Neill,  
 D. Neuhauser,  E. Neuscamman,  C. M. Oana,  R. Olivares-Amaya,  R. Olson,  
 T. M. Perrine,  B. Peters,  P. A. Pieniazek,  A. Prociuk,  Y. M. Rhee,  
 J. Ritchie,  M. A. Rohrdanz,  E. Rosta,  N. J. Russ,  H. F. Schaefer III,  
 M. W. Schmidt,  N. E. Schultz,  S. Sharma,  N. Shenvi,  C. D. Sherrill,  
 A. C. Simmonett,  A. Sodt,  T. Stein,  D. Stuck,  K. S. Thanthiriwatte,  
 V. Vanovschi,  L. Vogt,  Tao Wang,  A. Warshel,  M. A. Watson,  
 C. F. Williams,  Q. Wu,  X. Xu,  Jun Yang,  W. Zhang,  Yan Zhao

   Please cite Q-Chem as follows:
  "Software for the frontiers of quantum chemistry:
   An overview of developments in the Q-Chem 5 package"
   J. Chem. Phys. 155, 084801 (2021)
   https://doi.org/10.1063/5.0055522 (open access)

 Q-Chem 6.0.0 for Intel X86 EM64T Linux

 Parts of Q-Chem use Armadillo 9.900.5 (Nocturnal Misbehaviour).
 http://arma.sourceforge.net/

 Q-Chem begins on Tue Jan  2 15:13:57 2024  

 Host: login27
0

     Scratch files written to /tmp/qchem251423//Frg2//
 Jul222 |scratch|qcdevops|jenkins|workspace|build_RNUM 7470   
 Processing $rem in /global/common/software/nersc/pm-stable/sw/qchem/6.0.0/config/preferences:
 Processing $rem in /global/homes/h/heindelj/.qchemrc:

 Checking the input file for inconsistencies... 	...done.

--------------------------------------------------------------
User input:
--------------------------------------------------------------
$molecule
0 1
 8	-1.5023472885	-0.5852529295	-0.0787944534
 1	-2.0845969667	-0.9883371754	0.5669108972
 1	-0.6548745033	-1.0571773165	-0.0182220803
$end
$rem
EDA2		1
METHOD		WB97X-V
BASIS		DEF2-QZVPPD
XC_GRID		000099000590
NL_GRID		1
UNRESTRICTED		FALSE
MAX_SCF_CYCLES		200
SYMMETRY		FALSE
SYM_IGNORE		TRUE
BASIS_LIN_DEP_THRESH		8
THRESH		14
SCF_CONVERGENCE		7
SCF_PRINT_FRGM		TRUE
!required keywords
JOBTYPE		SP
SYM_IGNORE		TRUE
SUBSYSTEM		TRUE
CHILD_INSTRUCTION		2
GEN_SCFMAN		TRUE
SYM_IGNORE		TRUE
SCF_CONVERGENCE		7
MEM_STATIC		192
MEM_TOTAL		16000
PURECART		1111111
FRGM_METHOD		FALSE
CHILD_MP		1
CHILD_MP_ORDERS		232
EDA2		FALSE
FRZ_RELAX		0
FRZ_RELAX_METHOD		0
EDA_CLS_ELEC		1
EDA_CLS_DISP		0
FRZ_ORTHO_DECOMP		1
ECP		0
$end
--------------------------------------------------------------
 ----------------------------------------------------------------
             Standard Nuclear Orientation (Angstroms)
    I     Atom           X                Y                Z
 ----------------------------------------------------------------
    1      O      -1.5023472885    -0.5852529295    -0.0787944534
    2      H      -2.0845969667    -0.9883371754     0.5669108972
    3      H      -0.6548745033    -1.0571773165    -0.0182220803
 ----------------------------------------------------------------
 Nuclear Repulsion Energy =           9.11544077 hartrees
 There are        5 alpha and        5 beta electrons
 Requested basis set is def2-QZVPPD
 There are 42 shells and 132 basis functions

 Total QAlloc Memory Limit  16000 MB
 Mega-Array Size       188 MB
 MEM_STATIC part       192 MB


                       Distance Matrix (Angstroms)
             O (  1)   H (  2)
   H (  2)  0.958346
   H (  3)  0.971901  1.546359
 
 A cutoff of  1.0D-14 yielded    903 shell pairs
 There are      9017 function pairs (     13005 Cartesian)
 Smallest overlap matrix eigenvalue = 1.37E-04

 Scale SEOQF with 1.000000e-01/1.000000e-01/1.000000e-01

 Standard Electronic Orientation quadrupole field applied
 Nucleus-field energy     =     0.0000000011 hartrees
 Guess from superposition of atomic densities
 Warning:  Energy on first SCF cycle will be non-variational
 SAD guess density has 10.000000 electrons

 -----------------------------------------------------------------------
  General SCF calculation program by
  Eric Jon Sundstrom, Paul Horn, Yuezhi Mao, Dmitri Zuev, Alec White,
  David Stuck, Shaama M.S., Shane Yost, Joonho Lee, David Small,
  Daniel Levine, Susi Lehtola, Hugh Burton, Evgeny Epifanovsky,
  Bang C. Huynh
 -----------------------------------------------------------------------
 Exchange:     0.1670 Hartree-Fock + 1.0000 wB97X-V + LR-HF
 Correlation:  1.0000 wB97X-V
 Using Euler-Maclaurin-Lebedev (99,590) quadrature formula
 Nonlocal Correlation:  VV10 with C = 0.0100 and b = 6.00 and scale = 1.00000
 Grid used for NLC:  SG-1 standard quadrature
Energy prior to optimization (guess energy) = -76.386882889494
Begin Timing: Total SCF Calculation
begin iterations for algorithm: DIIS         
the SCF tolerance is set to 1.00e-07
    1     -76.3868828895      5.69e-03     00000 
    2     -76.3875987048      6.23e-03     00000 
    3     -76.4404565813      2.68e-04     00000 
    4     -76.4405615023      6.87e-05     00000 
    5     -76.4405729468      8.63e-06     00000 
    6     -76.4405732928      1.16e-06     00000 
    7     -76.4405733040      2.22e-07     00000 
    8     -76.4405733044      3.15e-08     00000 Convergence criterion met
Timing for Total SCF: 2.00s (wall), 156.79s (cpu)
Multipole orders to be included
        2
        3
computing dipole RHS
computing quadrupole RHS
total number of RHS in solve_reponses: 8
RHS batch sizes
        8
Beginning Block Conjugate Gradient Iterations. Batch Number: 0
              1      4.41e-01     00000 Conjugate Gradient Iteration
              2      1.35e-01     00000 Conjugate Gradient Iteration
              3      2.53e-02     00000 Conjugate Gradient Iteration
              4      4.09e-03     00000 Conjugate Gradient Iteration
              5      5.18e-04     00000 Conjugate Gradient Iteration
              6      6.47e-05     00000 Conjugate Gradient Iteration
              7      4.90e-06     00000 Conjugate Gradient Iteration
              8      3.39e-07     00000 Conjugate Gradient Iteration
              9      2.55e-08     00000 Conjugate Gradient Iteration
             10      2.21e-09     00000 CG Converged
batch 0 complete
Done Calculating Responses
TESTING ORTHOGONALIZATION OF MULTIPOLE BASIS
Max deviation in metric = 1.82e-12
Multipole virts passed orthogonality test
Virts Per Order
        15
        25
 
 --------------------------------------------------------------
 
                    Orbital Energies (a.u.)
 --------------------------------------------------------------
 
 Alpha MOs
 -- Occupied --
-19.2195  -1.1417  -0.6482  -0.5024  -0.4295
 -- Virtual --
  0.0565   0.0815   0.1062   0.1078   0.1844   0.2020   0.2264   0.2355
  0.2468   0.2797   0.3088   0.3348   0.4092   0.4154   0.4475   0.5004
  0.5165   0.5188   0.5754   0.5927   0.6042   0.7127   0.8374   0.8782
  0.9142   1.0076   1.0601   1.1090   1.1764   1.2032   1.4053   1.4421
  1.5025   1.5209   1.5769   1.6511   1.6806   1.9894   2.0151   2.0769
  2.1124   2.3240   2.3716   2.5128   2.5192   2.5426   2.6401   2.6747
  2.7454   2.7679   2.7857   3.0194   3.1747   3.2745   3.3411   3.5111
  3.7864   3.9627   3.9707   3.9995   4.1839   4.2097   4.3394   4.3402
  4.4870   4.6511   4.8751   4.9054   5.3297   5.4507   5.5147   5.8203
  5.9816   6.0492   6.1070   6.4282   6.6273   6.7972   7.1557   7.2033
  7.3166   7.3433   7.4187   7.4267   7.4918   7.5105   7.7434   7.7786
  7.8561   7.9113   7.9134   7.9565   8.0706   8.1603   8.4212   8.6184
  8.6684   8.8367   8.8385   9.0869   9.1065   9.8454   9.8994  10.2917
 10.4184  10.7674  10.8612  10.9933  11.1718  11.2259  11.3690  11.5276
 11.7938  11.8521  11.9234  11.9850  12.3150  12.8936  13.5352  13.6717
 13.6864  14.1254  14.4854  16.7014  16.8370  48.4131 253.3442
 --------------------------------------------------------------
 
          Ground-State Mulliken Net Atomic Charges

     Atom                 Charge (a.u.)
  ----------------------------------------
      1 O                    -0.415428
      2 H                     0.206711
      3 H                     0.208717
  ----------------------------------------
  Sum of atomic charges =     0.000000

 -----------------------------------------------------------------
                    Cartesian Multipole Moments
 -----------------------------------------------------------------
    Charge (ESU x 10^10)
                -0.0000
    Dipole Moment (Debye)
         X       0.4188      Y      -1.3999      Z       1.1325
       Tot       1.8487
    Quadrupole Moments (Debye-Ang)
        XX      -6.0237     XY       1.4271     YY      -5.1599
        XZ      -2.7022     YZ      -1.2926     ZZ      -6.8280
    Octopole Moments (Debye-Ang^2)
       XXX      24.7273    XXY       1.1346    XYY       8.4424
       YYY      11.6754    XXZ       6.0988    XYZ       2.8418
       YYZ       1.5085    XZZ       9.7231    YZZ       4.2463
       ZZZ       0.9412
    Hexadecapole Moments (Debye-Ang^3)
      XXXX     -79.4686   XXXY     -10.6882   XXYY     -16.9955
      XYYY     -18.1527   YYYY     -23.6166   XXXZ     -13.2915
      XXYZ      -6.0971   XYYZ      -3.0740   YYYZ      -1.5678
      XXZZ     -16.2439   XYZZ      -5.8335   YYZZ      -5.2009
      XZZZ      -1.5827   YZZZ      -0.6765   ZZZZ      -7.7337
 -----------------------------------------------------------------
 Total job time:  8.91s(wall), 539.11s(cpu) 
 Tue Jan  2 15:14:06 2024

        *************************************************************
        *                                                           *
        *  Thank you very much for using Q-Chem.  Have a nice day.  *
        *                                                           *
        *************************************************************


 Done Job For Fragment 1
 calling putenv with: QCSCRATCH=/pscratch/sd/h/heindelj 
 calling putenv with: QCLOCALSCR=/tmp 
 calling putenv with: QCTHREADS=64 
Doing General SCFMI
 Exchange:     0.1670 Hartree-Fock + 1.0000 wB97X-V + LR-HF
 Correlation:  1.0000 wB97X-V
 Using Euler-Maclaurin-Lebedev (99,590) quadrature formula
 Nonlocal Correlation:  VV10 with C = 0.0100 and b = 6.00 and scale = 1.00000
 Grid used for NLC:  SG-1 standard quadrature
performing fock build before subrot guess so that all methods have access
Printing subrot_rss_gen Method Specification:
Occupied Subspace Method is 0
Virtual Subspace Method is 0
Energy of the unrelaxed supersystem initial determinant -152.883311822693
write pseudocanon occs and virts to disk
write pseudocanon orbital energies to disk
Tolerance of ortho_decomp_scf: 1.00e-06
GDM subspace size: 20
Beginning the Orthogonal Decomposition of the Initial Supersystem Wavefunction
    1    -152.8411028982      2.39e-01     ortho_decomp Preconditoned Steepest Descent
    2    -152.8459498444      4.25e-03     ortho_decomp BFGS Step
    3    -152.8459591884      3.25e-04     ortho_decomp BFGS Step
    4    -152.8459592076      1.08e-05     ortho_decomp BFGS Step
    5    -152.8459592076      2.94e-07     ortho_decomp 00000 Convergence criterion met
 Hartree-Fock
 Hartree-Fock
 Hartree-Fock
Doing General SCFMI
 Exchange:     0.1670 Hartree-Fock + 1.0000 wB97X-V + LR-HF
 Correlation:  1.0000 wB97X-V
 Using Euler-Maclaurin-Lebedev (99,590) quadrature formula
 Nonlocal Correlation:  VV10 with C = 0.0100 and b = 6.00 and scale = 1.00000
 Grid used for NLC:  SG-1 standard quadrature
performing fock build at end of subrot_r(subrot) constructor so that all methods have access
<S^2> of initial wavefunction before polarization iterations 0.0000000000
Beginning iterations for the determination of the polarized wavefunction
Energy prior to optimization (guess energy) = -152.883311822692
Begin Timing: Total SCF Calculation
begin iterations for algorithm: DIIS         
the SCF tolerance is set to 1.00e-07
    1    -152.8833118227      6.69e-04     00000 
    2    -152.8850823571      1.74e-04     00000 
    3    -152.8852259897      7.80e-05     00000 
    4    -152.8852455732      3.99e-05     00000 
    5    -152.8852500516      9.59e-06     00000 
    6    -152.8852506696      2.15e-06     00000 
    7    -152.8852506925      1.45e-06     00000 
    8    -152.8852506964      1.44e-07     00000 
    9    -152.8852506966      3.47e-08     00000 Convergence criterion met
write pseudocanon occs and virts to disk
write pseudocanon orbital energies to disk
Timing for Total SCF: 8.00s (wall), 450.50s (cpu)
<S^2> of polarized wavefunction after polarization iterations 0.0000000000
relaxing scfmi constraint to allow all rotations in the entire AO span
Doing General SCFMI
 Exchange:     0.1670 Hartree-Fock + 1.0000 wB97X-V + LR-HF
 Correlation:  1.0000 wB97X-V
 Using Euler-Maclaurin-Lebedev (99,590) quadrature formula
 Nonlocal Correlation:  VV10 with C = 0.0100 and b = 6.00 and scale = 1.00000
 Grid used for NLC:  SG-1 standard quadrature
performing fock build at end of subrot_r(subrot) constructor so that all methods have access
<S^2> of polarized wavefunction before ct-allowed iterations 0.0000000000
Beginning iterations for the determination of the CT-Allowed wavefunction
Energy prior to optimization (guess energy) = -152.885250696569
Begin Timing: Total SCF Calculation
begin iterations for algorithm: DIIS         
the SCF tolerance is set to 1.00e-07
    1    -152.8852506966      2.89e-04     00000 
    2    -152.8884982157      4.49e-05     00000 
    3    -152.8886271937      1.64e-05     00000 
    4    -152.8886331884      9.45e-06     00000 
    5    -152.8886354947      7.15e-07     00000 
    6    -152.8886355264      3.64e-07     00000 
    7    -152.8886355302      1.23e-07     00000 
    8    -152.8886355307      1.64e-08     00000 Convergence criterion met
write pseudocanon occs and virts to disk
write pseudocanon orbital energies to disk
Timing for Total SCF: 6.00s (wall), 403.41s (cpu)
<S^2> of ct_allowed wavefunction after ct-allowed iterations 0.0000000000

================================
        Results of EDA2         
================================
Basic EDA Quantities
--------------------
Fragment Energies (Ha):
1  -76.4405856291
2  -76.4405733044
--------------------
  E_prp (kJ/mol) = 0.0000
  E_frz (kJ/mol) = -5.6525
  E_pol (kJ/mol) = -5.0906
  E_vct (kJ/mol) = -8.8870
  E_int (kJ/mol) = -19.6300
--------------------


Decomposition of frozen interaction energy
--------------------
  --------------------
  Orthogonal Frozen Decomposition:
  --------------------
     E_elec   (ELEC)   (kJ/mol) = -72.9902
     E_pauli  (PAULI)  (kJ/mol) = 76.2629
     E_disp   (DISP)   (kJ/mol) = -8.9252
  --------------------
  Classical Frozen Decomposition:
  --------------------
     E_cls_elec  (CLS ELEC)  (kJ/mol) = -38.7978
     E_mod_pauli (MOD PAULI) (kJ/mol) = 42.0705 (FRZ - CLS ELEC - DISP)
     E_disp      (DISP)      (kJ/mol) = -8.9252
  --------------------
--------------------

Simplified EDA Summary (kJ/mol)
--------------------
 PREPARATION      0.0000
 FROZEN           -5.6525 (ELEC + PAULI + DISP)
[ELEC + PAULI = 3.2727, DISP = -8.9252]
 POLARIZATION    -5.0906
 CHARGE TRANSFER -8.8870
 TOTAL           -19.6300     (PRP + FRZ + POL + CT)
--------------------
 
 --------------------------------------------------------------
 
                    Orbital Energies (a.u.)
 --------------------------------------------------------------
 
 Alpha MOs
 -- Occupied --
-19.2421 -19.1928  -1.1667  -1.1168  -0.6732  -0.6257  -0.5311  -0.4802
 -0.4508  -0.4073
 -- Virtual --
  0.0448   0.0713   0.0782   0.0858   0.1101   0.1215   0.1268   0.1767
  0.1812   0.2028   0.2169   0.2242   0.2522   0.2530   0.2543   0.2733
  0.2810   0.2965   0.3034   0.3395   0.3502   0.3554   0.3851   0.3953
  0.4226   0.4430   0.4540   0.4743   0.4911   0.5049   0.5214   0.5421
  0.5532   0.5571   0.5680   0.6048   0.6187   0.6383   0.6764   0.6856
  0.7182   0.7299   0.7606   0.8041   0.9043   0.9185   0.9321   0.9636
  0.9984   1.0076   1.0245   1.0990   1.1107   1.1250   1.1482   1.1878
  1.2006   1.2341   1.2948   1.3641   1.4141   1.4722   1.4744   1.5099
  1.5295   1.5814   1.6120   1.6177   1.6387   1.6654   1.6834   1.7371
  1.7695   1.9688   1.9762   2.0229   2.0699   2.0900   2.1139   2.1608
  2.2731   2.3270   2.3674   2.3933   2.4112   2.4435   2.5330   2.5704
  2.5865   2.6161   2.6355   2.6702   2.7090   2.7204   2.7253   2.7518
  2.7955   2.7999   2.8492   2.8818   2.9283   2.9786   3.0435   3.1532
  3.2265   3.2792   3.3895   3.4095   3.4257   3.4513   3.5995   3.6205
  3.8184   3.8625   3.9610   4.0056   4.0254   4.0270   4.0651   4.1500
  4.1707   4.2405   4.2901   4.3414   4.3848   4.4107   4.4683   4.5064
  4.5389   4.6251   4.6911   4.8141   4.9007   4.9372   4.9940   5.1142
  5.4166   5.4500   5.5139   5.5358   5.6342   5.7460   5.8380   5.8694
  6.0030   6.0388   6.0544   6.0801   6.1245   6.1659   6.4271   6.5295
  6.6188   6.6617   6.7995   6.8768   7.1115   7.1851   7.2473   7.2580
  7.3436   7.3944   7.4040   7.4307   7.4602   7.4729   7.4972   7.5210
  7.5400   7.5651   7.5973   7.6900   7.7642   7.7928   7.8381   7.8750
  7.8953   7.9190   7.9425   7.9609   7.9791   8.0302   8.0485   8.0845
  8.1411   8.2004   8.2907   8.4240   8.4689   8.5081   8.6427   8.6907
  8.7151   8.7361   8.8507   8.8645   8.8875   8.9088   9.0966   9.1238
  9.1295   9.2168   9.8418   9.8800   9.9245   9.9948  10.3163  10.3767
 10.4345  10.4547  10.7522  10.8454  10.8599  10.9087  11.0069  11.0587
 11.2032  11.2252  11.2686  11.2890  11.4015  11.4472  11.5829  11.5936
 11.8046  11.8167  11.8949  11.9328  11.9532  11.9868  12.0225  12.1770
 12.3915  12.4040  12.8887  12.9552  13.5246  13.5857  13.6912  13.7283
 13.7450  13.7557  14.1407  14.1769  14.5018  14.5840  16.7109  16.8286
 16.8790  16.9063  48.4682  48.5260 253.4163 253.4708
 --------------------------------------------------------------
 
          Ground-State Mulliken Net Atomic Charges

     Atom                 Charge (a.u.)
  ----------------------------------------
      1 O                    -0.443187
      2 H                     0.193775
      3 H                     0.203349
      4 O                    -0.418878
      5 H                     0.227858
      6 H                     0.237083
  ----------------------------------------
  Sum of atomic charges =     0.000000

 -----------------------------------------------------------------
                    Cartesian Multipole Moments
 -----------------------------------------------------------------
    Charge (ESU x 10^10)
                 0.0000
    Dipole Moment (Debye)
         X      -1.2738      Y      -1.6553      Z      -0.0826
       Tot       2.0903
    Quadrupole Moments (Debye-Ang)
        XX     -12.4506     XY       0.4563     YY     -10.5703
        XZ      -3.0737     YZ      -4.4906     ZZ     -13.4733
    Octopole Moments (Debye-Ang^2)
       XXX      19.5102    XXY     -10.4475    XYY       6.3983
       YYY     -16.7439    XXZ       5.8177    XYZ       2.1861
       YYZ      -6.2919    XZZ       8.3248    YZZ      -6.3460
       ZZZ      -0.5912
    Hexadecapole Moments (Debye-Ang^3)
      XXXX     -86.7580   XXXY     -16.2617   XXYY     -36.7398
      XYYY     -21.1251   YYYY    -118.9968   XXXZ     -13.7655
      XXYZ      -6.8124   XYYZ      -4.7037   YYYZ     -20.1453
      XXZZ     -18.8580   XYZZ      -7.4941   YYZZ     -23.4412
      XZZZ      -1.9654   YZZZ      -3.4910   ZZZZ     -15.4477
 -----------------------------------------------------------------
 Total job time:  48.63s(wall), 1903.39s(cpu) 
 Tue Jan  2 15:14:36 2024

        *************************************************************
        *                                                           *
        *  Thank you very much for using Q-Chem.  Have a nice day.  *
        *                                                           *
        *************************************************************


